118
d10a6.out	Energy:   -9113.5885941
C          1.29155       -5.54054       -0.46994
S          3.00721       -5.74803       -0.50806
C          3.21338       -4.04428       -0.42298
C          4.27500       -3.10602       -0.39220
C          3.73457       -1.82130       -0.31757
C          2.22392       -1.87514       -0.29463
C          2.00214       -3.36766       -0.36850
C          0.90201       -4.23418       -0.39586
C          1.62434       -1.15953       -1.50806
C          1.66749       -1.29126        1.00679
C          4.70233       -0.83066       -0.28475
C          5.98877       -1.35561       -0.33427
S          5.99264       -3.10822       -0.42220
C          7.20518       -0.65579       -0.32404
C          8.50282       -1.16728       -0.37450
N          9.00415       -2.39865       -0.44074
S         10.61202       -2.27569       -0.47083
N         10.75641       -0.67025       -0.40059
C          9.53242       -0.15339       -0.35098
C          9.03731        1.15145       -0.28199
S          7.28819        1.08855       -0.24572
C          9.74771        2.35618       -0.24918
S         11.50193        2.34964       -0.29994
C         11.50574        4.07047       -0.23340
C         12.44023        5.11871       -0.22627
C         11.75426        6.34256       -0.16152
C         10.26160        6.11803       -0.11825
C         10.21086        4.60974       -0.17326
C          9.22363        3.64743       -0.18200
C          9.56903        6.74448       -1.33128
C          9.65747        6.64860        1.18467
C         12.59526        7.43359       -0.15662
C         13.94031        7.06334       -0.21769
S         14.14938        5.32132       -0.27977
C         15.04770        7.91497       -0.23725
C         16.40764        7.59375       -0.29937
N         17.07783        6.44750       -0.35165
S         18.65319        6.79767       -0.40994
N         18.56455        8.40972       -0.37015
C         17.28018        8.74529       -0.31021
C         16.60394        9.96841       -0.25686
S         14.88123        9.65786       -0.19069
C         17.12589       11.26411       -0.25759
S         18.85950       11.52889       -0.33413
C         18.59653       13.23066       -0.29956
C         19.35565       14.41093       -0.32443
C         18.48844       15.51504       -0.27172
C         17.04938       15.06246       -0.20447
C         17.23341       13.56390       -0.23067
C         16.40836       12.46132       -0.20695
C         16.25506       15.54780       -1.41991
C         16.38219       15.51884        1.09578
C         19.14980       16.72301       -0.29679
C         20.53530       16.56455       -0.36946
S         21.01199       14.87551       -0.40463
C         21.49836       17.57583       -0.41814
C         22.89027       17.46327       -0.49522
N         23.72606       16.43112       -0.53973
S         25.22864       17.01505       -0.62675
N         24.89787       18.59492       -0.61087
C         23.57746       18.73376       -0.53695
C         22.72435       19.83979       -0.49227
S         21.07063       19.27354       -0.39588
C         23.04500       21.20145       -0.52083
S         24.71828       21.71866       -0.63179
C         24.20588       23.36175       -0.61766
C         24.78258       24.64459       -0.67290
C         23.76521       25.60632       -0.62028
C         22.40970       24.94742       -0.52188
C         22.81271       23.49181       -0.52958
C         22.15932       22.27774       -0.47514
C         21.53442       25.28833       -1.73076
C         21.70107       25.32126        0.78271
C         24.24428       26.90181       -0.67255
C         25.63142       26.94426       -0.76599
S         26.34985       25.34526       -0.78803
C         26.45118       28.08467       -0.84110
C         27.84041       28.14932       -0.93790
N         28.80469       27.23464       -0.98853
S         30.21064       28.01274       -1.09894
N         29.69064       29.53356       -1.09061
C         28.35268       29.50915       -0.99754
C         27.36220       30.45757       -0.94617
S         25.81934       29.70755       -0.82634
H          0.66837       -6.41192       -0.50534
H         -0.12756       -3.92618       -0.36353
H          2.02030       -1.58254       -2.42846
H          1.87038       -0.10090       -1.47649
H          0.54257       -1.26949       -1.51050
H          2.09420       -1.80725        1.86385
H          0.58627       -1.40317        1.03486
H          1.91390       -0.23460        1.07750
H          4.52096        0.22788       -0.22844
H          8.16409        3.82776       -0.14421
H         10.00076        6.35909       -2.25199
H          9.69110        7.82465       -1.31405
H          8.50770        6.50927       -1.31824
H         10.15203        6.19574        2.04081
H          8.59732        6.41176        1.22848
H          9.78057        7.72732        1.24094
H         12.29391        8.46504       -0.11326
H         15.33416       12.47525       -0.15705
H         16.73634       15.22195       -2.33904
H         16.20020       16.63359       -1.42068
H         15.24614       15.14376       -1.39207
H         16.95325       15.17234        1.95395
H         15.37508       15.11448        1.16042
H         16.32913       16.60428        1.12710
H         18.69237       17.69586       -0.26711
H         21.09572       22.13432       -0.40629
H         22.04757       25.02620       -2.65302
H         21.31416       26.35285       -1.74425
H         20.59954       24.73546       -1.68235
H         22.33195       25.08252        1.63569
H         20.76897       24.76889        0.87262
H         21.48263       26.38615        0.79729
H         23.64753       27.79615       -0.64727
H         27.44032       31.52394       -0.97078
