298
d11a12.out	Energy:   -9787.7879348
C          4.72225      -31.88159      -21.18158
S          5.54780      -31.28755      -19.78423
C          4.22008      -30.22002      -19.44516
C          4.10406      -29.32475      -18.39491
S          5.24985      -29.02652      -17.13034
C          3.51572      -31.30990      -21.37988
C          3.18485      -30.33678      -20.38969
C          2.02423      -29.53946      -20.26946
C          0.91435      -29.66407      -21.27046
C          1.91243      -28.63571      -19.22823
C          0.68486      -27.78169      -19.11295
C          2.95182      -28.52578      -18.27516
C          3.03817      -27.68723      -17.13321
C          4.19086      -27.82643      -16.41572
C          4.59542      -27.12286      -15.22022
C          3.68653      -26.30597      -14.53308
C          4.11892      -25.63025      -13.41702
N          3.39185      -24.80643      -12.58042
C          1.99940      -24.45245      -12.69154
C          1.09747      -25.31939      -11.79911
C         -0.32383      -24.76437      -11.81841
C          1.11079      -26.77996      -12.24088
C          4.16889      -24.35447      -11.54519
O          3.75216      -23.58786      -10.70004
C          5.89829      -27.24923      -14.72680
C          6.33108      -26.56050      -13.61151
C          5.45243      -25.70988      -12.94905
C          5.54861      -24.90202      -11.75438
C          6.63854      -24.58795      -10.98730
C          6.72169      -23.98157       -9.67959
C          5.78196      -23.63907       -8.71260
C          6.19871      -23.07680       -7.52295
C          8.06313      -24.73703      -11.43600
O          8.49796      -25.09777      -12.51023
N          8.86092      -24.27112      -10.42144
C         10.29890      -24.25235      -10.51873
C         10.98334      -25.50888       -9.94833
C         10.85234      -25.60511       -8.43045
C         10.44055      -26.77307      -10.60992
C          8.09274      -23.80389       -9.37478
C          8.51044      -23.22490       -8.20030
C          7.55182      -22.83364       -7.25764
C          7.97297      -22.18263       -6.03925
S          9.67197      -22.14599       -5.60432
C          9.31811      -21.21184       -4.18907
C         10.21644      -20.71321       -3.26214
S         11.93791      -20.92128       -3.24053
C          7.20885      -21.51912       -5.12383
C          7.94227      -20.94750       -4.05237
C          7.47431      -20.18153       -2.95835
C          6.00691      -19.92023       -2.79383
C          8.37377      -19.66032       -2.04733
C          7.87804      -18.82319       -0.90589
C          9.75707      -19.92056       -2.19299
C         10.84251      -19.48029       -1.39194
C         12.06417      -19.91768       -1.81226
C         13.35886      -19.62907       -1.23657
C         13.53483      -18.47008       -0.46907
C         14.77861      -18.21005        0.05583
N         15.18999      -17.11497        0.78986
C         14.39484      -15.98248        1.19183
C         14.39984      -14.82105        0.17914
C         15.82585      -14.37940       -0.13956
C         13.65301      -15.16681       -1.10658
C         16.51193      -17.23727        1.14022
O         17.07839      -16.46547        1.88609
C         14.44687      -20.47906       -1.45626
C         15.68544      -20.23415       -0.89681
C         15.86602      -19.10195       -0.10955
C         17.01100      -18.51953        0.54619
C         18.28422      -18.99314        0.70809
C         19.48131      -18.29390        1.10943
C         19.80253      -16.94724        1.23473
C         21.09475      -16.58893        1.55948
C         18.68776      -20.43113        0.60208
O         18.02096      -21.40691        0.32350
N         20.00247      -20.50909        0.98858
C         20.70635      -21.76622        1.02845
C         21.19292      -22.21624       -0.35788
C         22.23763      -21.25770       -0.92195
C         21.75519      -23.63175       -0.26474
C         20.51005      -19.25365        1.26331
C         21.79379      -18.90196        1.61097
C         22.09373      -17.54315        1.77754
C         23.42472      -17.12577        2.15775
S         23.94853      -15.48726        1.83205
C         25.49139      -15.81305        2.54903
C         26.55637      -14.93941        2.68136
S         26.64127      -13.29636        2.13953
C         24.39640      -17.85184        2.78255
C         25.59312      -17.13067        3.03376
C         26.78359      -17.55763        3.66922
C         26.89658      -18.95564        4.20040
C         27.84826      -16.68529        3.80021
C         29.11042      -17.14630        4.46638
C         27.74268      -15.36143        3.31050
C         28.69312      -14.30805        3.34762
C         28.26942      -13.14763        2.76696
C         28.98381      -11.89956        2.62051
C         30.11621      -11.63036        3.40114
C         30.76115      -10.42699        3.23599
N         31.90071       -9.97205        3.87081
C         32.62521      -10.62003        4.93446
C         32.10445      -10.28287        6.34483
C         32.03140       -8.77224        6.55134
C         30.74961      -10.92369        6.63452
C         32.32182       -8.78831        3.31921
O         33.32404       -8.20904        3.68697
C         28.55557      -10.94531        1.69243
C         29.21951       -9.74875        1.51315
C         30.33668       -9.46239        2.29056
C         31.30402       -8.38813        2.29433
C         31.33028       -7.21791        1.58261
C         32.41137       -6.28756        1.34761
C         33.77272       -6.28984        1.63400
C         34.57063       -5.25982        1.17701
C         30.13974       -6.61046        0.89771
O         28.98843       -6.99290        0.85888
N         30.55504       -5.43215        0.33430
C         29.67483       -4.53725       -0.37074
C         29.33680       -3.27719        0.44028
C         28.48029       -2.34412       -0.41051
C         28.61564       -3.65106        1.73163
C         31.89960       -5.22807        0.56141
C         32.68957       -4.20393        0.09834
C         34.05429       -4.20402        0.41549
C         34.89690       -3.12927       -0.05391
S         34.21996       -1.86887       -1.07016
C         35.76071       -1.08503       -1.17462
C         36.07353        0.06767       -1.87207
S         35.00638        1.05012       -2.81843
C         36.22642       -2.92133        0.17629
C         36.75681       -1.76213       -0.44610
C         38.07976       -1.25929       -0.42319
C         39.14112       -1.96492        0.36687
C         38.39721       -0.11930       -1.13801
C         39.80522        0.39656       -1.13382
C         37.39190        0.56084       -1.86622
C         37.49200        1.74174       -2.64579
C         36.32074        2.14009       -3.22303
C         36.07429        3.27996       -4.07502
C         34.77861        3.52448       -4.54912
C         34.56544        4.60417       -5.37176
N         33.37543        5.03471       -5.92061
C         32.08558        4.42760       -5.72024
C         31.50017        4.72396       -4.33070
C         31.29286        6.22423       -4.14606
C         30.18419        3.96960       -4.16585
C         33.56285        6.17513       -6.65776
O         32.67460        6.71286       -7.28556
C         37.10476        4.15539       -4.43980
C         36.88667        5.23168       -5.27681
C         35.61128        5.46482       -5.77948
C         35.02874        6.50174       -6.60116
C         35.61795        7.53866       -7.26910
C         35.02922        8.72490       -7.86003
C         33.76220        9.29140       -7.80903
C         33.54514       10.51597       -8.42167
C         37.07638        7.61518       -7.61265
O         37.97630        6.83935       -7.36006
N         37.25175        8.74131       -8.37301
C         38.51457        9.10418       -8.96030
C         38.55733        8.84881      -10.47477
C         39.90543        9.30388      -11.02611
C         38.31961        7.37190      -10.77490
C         36.06531        9.43566       -8.50635
C         35.85054       10.65430       -9.11639
C         34.56839       11.18538       -9.07335
H          5.19958      -32.63416      -21.77826
H          2.88382      -31.57173      -22.20901
H          1.08666      -30.48577      -21.95649
H          0.82317      -28.74634      -21.85230
H         -0.03609      -29.83245      -20.76587
H          0.48782      -27.26943      -20.05357
H          0.78983      -27.03420      -18.33459
H         -0.18529      -28.39701      -18.88168
H          2.26962      -26.98930      -16.85719
H          2.66554      -26.22480      -14.86637
H          1.69611      -24.53166      -13.73735
H          1.90925      -23.40882      -12.37327
H          1.48786      -25.25440      -10.77827
H         -0.33962      -23.73645      -11.46462
H         -0.96984      -25.35801      -11.17641
H         -0.72873      -24.78860      -12.82845
H          0.70233      -26.87914      -13.24496
H          0.50360      -27.38088      -11.56781
H          2.12150      -27.18155      -12.23695
H          6.58884      -27.89769      -15.24532
H          7.34771      -26.67040      -13.27889
H          4.73212      -23.78566       -8.89322
H          5.45775      -22.81832       -6.78375
H         10.67440      -23.35854      -10.01417
H         10.53227      -24.18253      -11.58601
H         12.04644      -25.41376      -10.19756
H          9.80824      -25.68456       -8.13636
H         11.28750      -24.73521       -7.94352
H         11.37425      -26.48864       -8.06972
H          9.40777      -26.94674      -10.31317
H         11.02932      -27.63732      -10.31128
H         10.47355      -26.68542      -11.69279
H          9.55594      -23.05689       -7.99683
H          6.14547      -21.41616       -5.23474
H          5.41624      -20.52470       -3.47312
H          5.78370      -18.87045       -2.98758
H          5.69232      -20.14429       -1.77583
H          7.22540      -18.03108       -1.26989
H          8.69650      -18.36743       -0.36000
H          7.30285      -19.43426       -0.20950
H         10.72578      -18.87807       -0.50959
H         12.71404      -17.78780       -0.32460
H         14.82585      -15.62480        2.13249
H         13.37081      -16.31690        1.37668
H         13.87890      -13.98999        0.66850
H         16.34664      -15.14906       -0.70643
H         16.38387      -14.19191        0.77406
H         15.81406      -13.46941       -0.73498
H         14.12555      -16.00370       -1.61575
H         13.65994      -14.31240       -1.77965
H         12.61601      -15.42283       -0.89947
H         14.30329      -21.35954       -2.06480
H         16.49398      -20.92622       -1.05356
H         19.05517      -16.18616        1.09782
H         21.34320      -15.54353        1.66563
H         20.00475      -22.51332        1.41345
H         21.54622      -21.67835        1.72051
H         20.32358      -22.22509       -1.02322
H         23.12571      -21.24716       -0.29260
H         21.84650      -20.24485       -0.98593
H         22.53386      -21.57123       -1.92026
H         22.60411      -23.66072        0.41587
H         22.08867      -23.97048       -1.24237
H         20.99815      -24.32289        0.09754
H         22.56647      -19.64485        1.72326
H         24.24373      -18.87392        3.07750
H         25.95094      -19.48260        4.14055
H         27.21466      -18.94237        5.24191
H         27.63904      -19.51876        3.63402
H         28.93123      -17.34439        5.52361
H         29.89715      -16.40441        4.38779
H         29.46542      -18.07009        4.01181
H         29.67437      -14.41003        3.77349
H         30.46203      -12.35094        4.12296
H         33.65936      -10.27061        4.85411
H         32.60376      -11.70133        4.77305
H         32.83843      -10.69658        7.04619
H         31.24351       -8.34076        5.93691
H         32.97139       -8.29969        6.27890
H         31.81348       -8.54423        7.59210
H         29.99040      -10.54970        5.95162
H         30.43861      -10.68755        7.64973
H         30.80192      -12.00669        6.54237
H         27.68451      -11.15971        1.09127
H         28.85861       -9.04229        0.78744
H         34.20681       -7.07743        2.22371
H         35.62158       -5.27837        1.41588
H         28.75804       -5.09863       -0.57205
H         30.13955       -4.25925       -1.32249
H         30.27071       -2.76491        0.69669
H         29.00272       -2.06256       -1.32229
H         28.24505       -1.43819        0.14242
H         27.54718       -2.83176       -0.68370
H         27.70293       -4.19985        1.51105
H         28.35738       -2.75704        2.29440
H         29.24521       -4.27828        2.35905
H         32.27953       -3.41040       -0.50718
H         36.81458       -3.58928        0.77739
H         38.71912       -2.73514        1.00274
H         39.67859       -1.25839        0.99728
H         39.86526       -2.43190       -0.30160
H         40.06317        0.78757       -0.14895
H         39.94174        1.18948       -1.86069
H         40.50469       -0.40467       -1.36683
H         38.40794        2.28765       -2.77369
H         33.97078        2.86725       -4.26627
H         32.17654        3.34703       -5.86813
H         31.42615        4.83828       -6.49035
H         32.20708        4.37289       -3.57087
H         30.62301        6.61097       -4.91075
H         32.23804        6.75817       -4.21950
H         30.86147        6.42997       -3.16921
H         29.46607        4.29406       -4.91562
H         29.76168        4.15711       -3.18191
H         30.33619        2.89795       -4.27438
H         38.10229        3.98664       -4.06806
H         37.70868        5.86848       -5.55150
H         32.95065        8.78506       -7.31767
H         32.55892       10.95343       -8.39034
H         39.27346        8.49067       -8.46615
H         38.71705       10.15954       -8.74946
H         37.76257        9.43396      -10.95078
H         40.71138        8.73287      -10.57056
H         40.07271       10.35929      -10.82134
H         39.94431        9.15352      -12.10211
H         37.33486        7.06065      -10.43319
H         39.06324        6.75822      -10.27155
H         38.38200        7.18786      -11.84492
H         36.65138       11.18759       -9.60450
H         34.37287       12.13515       -9.54884
