158
d11a11.out	Energy:   -8297.5289936
C         11.91444        4.75076       -4.97081
S         11.99227        3.12446       -4.38979
C         10.25664        3.05286       -4.33527
C          9.46900        1.98546       -3.94111
S          9.99835        0.42298       -3.39826
C         10.65418        5.21226       -5.11616
C          9.65885        4.25509       -4.75726
C          8.25087        4.37572       -4.77977
C          7.60505        5.65204       -5.23055
C          7.46170        3.31261       -4.38078
C          5.96796        3.43886       -4.40190
C          8.06417        2.10379       -3.95922
C          7.44630        0.90644       -3.52738
C          8.33194       -0.08387       -3.19508
C          7.99660       -1.38594       -2.74984
C          6.71579       -1.90731       -2.55292
N          5.54100       -1.26594       -2.72641
C          4.44793       -1.94472       -2.49212
C          3.15161       -1.22898       -2.68354
C          4.47316       -3.31718       -2.07040
C          3.21433       -4.07437       -1.81602
N          5.60074       -3.95281       -1.89317
C          6.73461       -3.27014       -2.12540
C          8.01725       -3.79775       -1.98953
S          9.19394       -2.59184       -2.39142
C          8.32109       -5.12492       -1.61308
S          7.00132       -6.22745       -1.29470
C          8.14420       -7.50362       -0.99539
C          7.86217       -8.82088       -0.68969
S          6.29197       -9.53468       -0.50028
C          9.55067       -5.71665       -1.47584
C          9.48572       -7.08336       -1.12188
C         10.53932       -8.00863       -0.91509
C         11.96604       -7.55813       -1.01598
C         10.25298       -9.32936       -0.63080
C         11.36828      -10.31238       -0.43591
C          8.90575       -9.75591       -0.52066
C          8.39554      -11.04756       -0.25610
C          7.02598      -11.10089       -0.21481
C          6.21825      -12.24250        0.00625
C          6.61420      -13.57887        0.11020
N          7.87815      -14.04020        0.03969
C          8.05275      -15.33149        0.15316
C          9.45571      -15.83774        0.07824
C          6.95295      -16.22983        0.34454
C          7.17547      -17.70125        0.46928
N          5.71783      -15.80507        0.41520
C          5.51386      -14.47776        0.30096
C          4.27949      -13.82620        0.35870
S          4.49938      -12.12007        0.16211
C          2.99518      -14.38613        0.56349
S          1.60878      -13.34119        0.80362
C          0.58347      -14.72802        0.98931
C         -0.76971      -14.73104        1.26262
S         -1.78555      -13.35137        1.53814
C          2.66071      -15.71458        0.61755
C          1.28547      -15.94502        0.85417
C          0.58613      -17.17251        0.96747
C          1.32453      -18.46970        0.82254
C         -0.77422      -17.17518        1.20714
C         -1.51696      -18.47373        1.31190
C         -1.46875      -15.95160        1.37603
C         -2.82941      -15.73079        1.68930
C         -3.15585      -14.40575        1.82459
C         -4.41237      -13.86967        2.19605
C         -5.61454      -14.55204        2.40030
N         -5.81508      -15.87330        2.22912
C         -7.01469      -16.33462        2.47098
C         -7.23151      -17.79965        2.27966
C         -8.08083      -15.47961        2.90100
C         -9.44450      -16.02681        3.16697
N         -7.90832      -14.19502        3.07661
C         -6.67978      -13.69694        2.83359
C         -6.28891      -12.36208        2.96943
S         -4.62239      -12.18523        2.53429
C         -7.05654      -11.26926        3.44036
S         -6.33436       -9.68155        3.61691
C         -7.82218       -9.06498        4.26414
C         -8.06962       -7.78295        4.71527
S         -6.96158       -6.44712        4.73981
C         -8.36632      -11.29122        3.84441
C         -8.83539      -10.04571        4.32249
C        -10.11170       -9.70694        4.83556
C        -11.19652      -10.74079        4.88556
C        -10.35435       -8.42866        5.30034
C        -11.69923       -8.08051        5.86463
C         -9.33363       -7.44794        5.24538
C         -9.36680       -6.09696        5.66538
C         -8.18785       -5.42896        5.46862
C         -7.90976       -4.07585        5.79657
C         -8.75748       -3.14268        6.39233
N        -10.03569       -3.34380        6.77440
C        -10.66085       -2.33471        7.32041
C        -12.07684       -2.55608        7.74006
C        -10.02719       -1.05794        7.51425
C        -10.76663        0.07486        8.14647
N         -8.79523       -0.83441        7.15276
C         -8.12507       -1.86388        6.58295
C         -6.82576       -1.84240        6.13472
S         -6.36621       -3.35524        5.48842
H         12.83189        5.26882       -5.17096
H         10.44197        6.20598       -5.46667
H          8.33745        6.36680       -5.58855
H          7.05453        6.10859       -4.40763
H          6.89581        5.45573       -6.03382
H          5.65025        4.30318       -3.81981
H          5.49108        2.55515       -3.99356
H          5.61400        3.57952       -5.42354
H          6.38894        0.73497       -3.45359
H          3.34628       -0.20184       -2.97912
H          2.57348       -1.23462       -1.76090
H          2.55864       -1.71754       -3.45545
H          2.59094       -4.09020       -2.70876
H          2.64353       -3.60650       -1.01508
H          3.46502       -5.09223       -1.53148
H         10.45687       -5.16255       -1.64502
H         12.03632       -6.48174       -1.12534
H         12.45239       -8.02319       -1.87389
H         12.51970       -7.84896       -0.12419
H         11.95297      -10.05220        0.44686
H         12.04049      -10.30025       -1.29301
H         10.98908      -11.32008       -0.30954
H          8.97877      -11.93542       -0.09874
H         10.12904      -15.00544       -0.10573
H          9.55726      -16.56697       -0.72389
H          9.73455      -16.32306        1.01269
H          7.84598      -17.91703        1.29958
H          7.62702      -18.09577       -0.44009
H          6.22347      -18.19611        0.63867
H          3.41215      -16.47033        0.48583
H          2.39629      -18.31040        0.78357
H          1.01966      -18.97920       -0.09219
H          1.10304      -19.12999        1.65976
H         -1.22202      -19.00773        2.21590
H         -1.29016      -19.11274        0.45995
H         -2.58861      -18.31173        1.34486
H         -3.57211      -16.49144        1.84030
H         -6.30410      -18.26028        1.95138
H         -8.00349      -17.97647        1.53219
H         -7.55222      -18.26238        3.21193
H         -9.84791      -16.49605        2.27082
H        -10.10268      -15.21974        3.47570
H         -9.40606      -16.77924        3.95336
H         -8.93376      -12.20167        3.79738
H        -10.89342      -11.65488        4.38762
H        -12.09941      -10.36802        4.40364
H        -11.44720      -10.97846        5.91976
H        -12.46479       -8.14868        5.09131
H        -11.70973       -7.07461        6.26878
H        -11.96899       -8.77524        6.65924
H        -10.20892       -5.59469        6.10355
H        -12.36476       -3.57878        7.51336
H        -12.74109       -1.87192        7.21364
H        -12.18985       -2.37970        8.80879
H        -11.65581        0.32136        7.56823
H        -10.11493        0.94265        8.19211
H        -11.08202       -0.19160        9.15420
H         -6.13370       -1.02598        6.15612
