138
d11a7.out	Energy:  -10008.6070124
C         18.57486        5.80325       10.40936
S         17.31736        5.07554        9.47500
C         18.25885        3.62223        9.32624
C         17.91049        2.46161        8.65797
S         16.43994        2.13879        7.79411
C         19.64240        4.99768       10.59985
C         19.49798        3.71897        9.98608
C         20.39546        2.62534        9.96951
C         21.71594        2.71759       10.67410
C         20.05595        1.46549        9.29921
C         21.00799        0.30814        9.27754
C         18.80717        1.37195        8.63680
C         18.26638        0.29143        7.90598
C         17.01686        0.53661        7.39248
C         16.21127       -0.34723        6.61865
C         16.60464       -1.64793        6.24239
N         17.76331       -2.24991        6.53196
S         17.77078       -3.72383        5.89592
N         16.31915       -3.69384        5.22011
C         15.74512       -2.51348        5.45928
C         14.93018        0.02338        6.16471
N         14.35837        1.20649        6.39841
S         12.90768        1.23700        5.72147
N         12.91150       -0.24056        5.09281
C         14.06833       -0.84343        5.38498
C         14.45947       -2.14668        5.01306
C         13.64813       -3.03979        4.25978
S         14.23711       -4.62950        3.83639
C         12.73877       -4.97969        3.02973
C         12.38807       -6.15017        2.38787
S         13.36351       -7.57309        2.18708
C         12.37259       -2.81546        3.79203
C         11.82425       -3.90285        3.08705
C         10.54427       -4.02342        2.48248
C          9.58348       -2.87357        2.52836
C         10.18528       -5.20043        1.86206
C          8.82818       -5.33976        1.24035
C         11.10670       -6.28010        1.80339
C         10.94974       -7.54820        1.21450
C         12.05723       -8.35849        1.33080
C         12.21695       -9.68473        0.84450
C         13.43758      -10.37469        0.97764
N         14.53946       -9.89053        1.55465
S         15.70338      -10.99189        1.48156
N         14.88515      -12.14191        0.71896
C         13.64291      -11.71546        0.48123
C         11.20171      -10.42335        0.19677
N          9.95897       -9.99910       -0.04609
S          9.13736      -11.15666       -0.79379
N         10.29714      -12.26353       -0.85806
C         11.40412      -11.77895       -0.28954
C         12.63604      -12.45845       -0.16530
C         12.87990      -13.77316       -0.64869
S         14.47851      -14.46787       -0.52103
C         13.92080      -15.91369       -1.30422
C         14.66798      -17.02902       -1.62271
S         16.36585      -17.26519       -1.34793
C         11.98523      -14.63059       -1.25022
C         12.54637      -15.86319       -1.63269
C         11.92870      -16.97374       -2.26853
C         10.46957      -16.92710       -2.60877
C         12.67160      -18.09466       -2.57192
C         12.01833      -19.27067       -3.23314
C         14.05859      -18.13156       -2.26519
C         15.00095      -19.14409       -2.52378
C         16.27761      -18.83773       -2.10602
C         17.45439      -19.62138       -2.25370
C         17.49647      -20.89119       -2.87112
N         16.44896      -21.55619       -3.36478
S         16.94606      -22.95212       -3.97947
N         18.51185      -22.80367       -3.66359
C         18.73191      -21.63785       -3.04995
C         18.70578      -19.15698       -1.80365
N         18.91977      -17.99690       -1.17912
S         20.48319      -17.85119       -0.85224
N         20.98045      -19.24069       -1.48038
C         19.93253      -19.89775       -1.98293
C         19.98662      -21.15168       -2.62122
C         21.22102      -21.83121       -2.81688
S         22.71530      -21.10837       -2.26884
C         23.60768      -22.46330       -2.88802
C         24.97546      -22.65042       -2.84972
S         26.16388      -21.58194       -2.17041
C         21.42463      -23.04700       -3.42939
C         22.77627      -23.43737       -3.48664
C         23.34670      -24.61166       -4.04602
C         22.46613      -25.64729       -4.67748
C         24.71246      -24.79717       -4.01082
C         25.31592      -26.03350       -4.60567
C         25.54565      -23.81598       -3.41063
C         26.94695      -23.80541       -3.27067
C         27.43520      -22.68768       -2.63451
C         28.79710      -22.38132       -2.34607
C         29.15952      -21.19199       -1.68595
N         28.30912      -20.25105       -1.26853
S         29.13725      -19.07013       -0.57058
N         30.61234      -19.66281       -0.74710
C         30.53562      -20.84601       -1.37728
C         29.88270      -23.21525       -2.68577
N         29.82049      -24.39428       -3.31312
S         31.30544      -24.97772       -3.48438
N         32.12087      -23.79461       -2.78572
C         31.25798      -22.85517       -2.36960
C         31.59406      -21.67600       -1.71737
H         18.43714        6.80563       10.76530
H         20.50519        5.30921       11.16011
H         21.83027        3.66514       11.18815
H         22.53406        2.61308        9.96168
H         21.81163        1.91647       11.40616
H         21.96976        0.61461        8.86742
H         20.62470       -0.51030        8.67900
H         21.18274       -0.05770       10.28938
H         18.75036       -0.65308        7.74278
H         11.87771       -1.88131        3.98045
H         10.05360       -1.98007        2.92334
H          8.72811       -3.11894        3.15842
H          9.20705       -2.65345        1.53051
H          8.73933       -4.68286        0.37451
H          8.05323       -5.05688        1.95116
H          8.64324       -6.35783        0.91677
H         10.06935       -7.89487        0.70675
H         10.96180      -14.33940       -1.39498
H         10.03354      -15.96694       -2.35766
H          9.92906      -17.70302       -2.06642
H         10.32197      -17.10592       -3.67339
H         11.16849      -19.61307       -2.64357
H         12.71091      -20.09661       -3.34867
H         11.64487      -18.99305       -4.21893
H         14.79409      -20.07943       -3.00926
H         20.59640      -23.60934       -3.81777
H         21.41907      -25.37579       -4.60704
H         22.60610      -26.61173       -4.19002
H         22.72035      -25.77058       -5.73019
H         24.94105      -26.92094       -4.09591
H         26.39712      -26.02521       -4.52912
H         25.04502      -26.11921       -5.65762
H         27.61334      -24.57498       -3.61273
H         32.61478      -21.42392       -1.49095
