338
d1a12.out	Energy:  -10711.3907261
C         29.71168       34.52867      -17.98251
S         29.05803       34.19101      -16.41479
C         28.85717       32.54708      -16.85666
C         28.31078       31.36252      -16.29979
S         27.60905       30.82527      -14.83592
C         29.77758       33.43831      -18.79465
C         29.30109       32.27754      -18.15411
C         29.04560       30.87027      -18.45821
C         29.29946       30.14870      -19.56764
C         30.06375       30.56885      -20.72829
C         31.23952       31.30494      -20.58886
C         31.97553       31.68637      -21.69898
C         33.24887       32.46245      -21.54511
C         31.52457       31.32290      -22.96176
C         30.36893       30.56922      -23.12781
C         29.90617       30.19172      -24.50260
C         29.65338       30.18636      -22.00533
C         28.39034       30.34987      -17.25849
C         27.87335       29.13604      -16.79942
C         27.40234       29.21326      -15.50561
C         26.82092       28.16864      -14.70350
C         26.38328       26.97683      -15.30208
C         25.88458       25.97904      -14.50016
N         25.36583       24.75443      -14.87520
C         25.27333       24.21766      -16.20904
C         26.52032       23.43223      -16.65842
C         27.71385       24.34289      -16.93501
C         26.89145       22.36763      -15.62957
C         24.84788       24.09425      -13.78803
O         24.29181       23.01800      -13.87249
C         26.68623       28.32057      -13.31809
C         26.17590       27.31994      -12.51807
C         25.79037       26.11303      -13.09356
C         25.16587       24.91915      -12.57902
C         24.97998       24.50706      -11.28470
C         24.18578       23.42684      -10.75067
C         23.20800       22.58910      -11.28026
C         22.59919       21.65329      -10.46785
C         25.72273       25.06514      -10.10858
O         26.53389       25.96734      -10.05262
N         25.38383       24.30478       -9.01758
C         25.93490       24.55384       -7.70953
C         27.25908       23.81286       -7.46397
C         27.91076       24.34385       -6.18999
C         27.05620       22.30309       -7.36863
C         24.46206       23.33768       -9.36472
C         23.85460       22.41547       -8.55055
C         22.92891       21.52316       -9.11419
C         22.37170       20.48047       -8.29405
S         20.96179       19.55978       -8.79202
C         21.05735       18.61239       -7.36595
C         20.42474       17.48340       -6.78957
S         19.11555       16.42702       -7.10884
C         22.86195       20.04632       -7.08165
C         22.11844       18.99975       -6.53690
C         22.17847       18.10796       -5.38049
C         23.03547       18.11845       -4.34214
C         24.02698       19.15311       -4.08294
C         23.68763       20.50126       -4.17222
C         24.63319       21.49146       -3.95031
C         24.24582       22.93780       -4.03564
C         25.93271       21.11911       -3.63485
C         26.29017       19.78111       -3.51020
C         27.70153       19.41127       -3.16837
C         25.32836       18.80684       -3.72208
C         21.10226       17.14822       -5.61046
C         20.56252       16.02618       -4.98178
C         19.48196       15.50221       -5.66080
C         18.69763       14.34602       -5.31270
C         19.20518       13.41255       -4.39570
C         18.43508       12.32510       -4.06482
N         18.74773       11.27968       -3.21832
C         19.96857       11.08845       -2.47806
C         21.04549       10.28989       -3.23755
C         20.49331        8.95034       -3.71793
C         21.63117       11.07248       -4.40999
C         17.69194       10.40758       -3.11788
O         17.67897        9.47083       -2.34492
C         17.43620       14.12504       -5.87920
C         16.65296       13.04647       -5.52111
C         17.12817       12.13892       -4.57877
C         16.60546       10.92142       -4.01222
C         15.36477       10.34614       -4.10252
C         14.93349        9.04152       -3.66724
C         15.60358        7.87088       -3.32885
C         14.87981        6.75714       -2.96111
C         14.11176       11.05571       -4.51662
O         13.96385       12.16514       -4.98674
N         13.06361       10.22548       -4.20389
C         11.68370       10.59837       -4.37199
C         10.99370       10.92177       -3.03783
C         11.68832       12.09184       -2.34774
C          9.52266       11.23686       -3.29236
C         13.51969        9.01601       -3.71935
C         12.79113        7.91322       -3.34385
C         13.47717        6.76470       -2.92107
C         12.75856        5.63133       -2.40308
S         11.04813        5.75900       -2.01037
C         11.06381        4.17957       -1.34874
C         10.16980        3.28374       -0.71642
S          8.54168        3.23141       -0.18581
C         13.26789        4.40032       -2.04908
C         12.32787        3.57697       -1.42702
C         12.25777        2.24417       -0.82973
C         13.20589        1.29672       -0.69245
C         14.61906        1.43580       -1.00155
C         15.32698        2.57848       -0.63107
C         16.67135        2.71401       -0.93839
C         17.42864        3.94545       -0.54257
C         17.31178        1.68270       -1.61470
C         16.63869        0.51859       -1.96402
C         17.35367       -0.57874       -2.69286
C         15.29561        0.39989       -1.64399
C         10.86872        2.11339       -0.39850
C         10.08939        1.19586        0.30760
C          8.80227        1.64146        0.51837
C          7.75298        1.00199        1.26930
C          6.41344        1.37352        1.08479
C          5.45295        0.78304        1.87102
N          4.08225        0.94067        1.82142
C          3.36943        1.83311        0.94547
C          3.48556        3.30263        1.37841
C          2.77554        4.18825        0.35870
C          2.89427        3.49689        2.77132
C          3.46043        0.11289        2.72381
O          2.25486        0.04997        2.85099
C          8.06644        0.01916        2.21844
C          7.10019       -0.55433        3.01750
C          5.77573       -0.15346        2.88163
C          4.54299       -0.57400        3.49858
C          4.34794       -1.31038        4.63730
C          3.15986       -1.93284        5.16548
C          1.87898       -2.16383        4.67079
C          0.97423       -2.87484        5.43454
C          5.40200       -1.51208        5.68589
O          6.54530       -1.10573        5.72562
N          4.81036       -2.18734        6.72278
C          5.49483       -2.55583        7.93395
C          5.86743       -4.04653        7.97379
C          6.95376       -4.34998        6.94692
C          6.32231       -4.42434        9.38065
C          3.49247       -2.47261        6.43056
C          2.59548       -3.16827        7.19966
C          1.29889       -3.37724        6.70154
C          0.34406       -4.09743        7.50098
S         -1.29352       -4.39156        6.93574
C         -1.67043       -5.20599        8.39570
C         -2.74965       -5.91843        8.97222
S         -4.35168       -6.38035        8.58562
C          0.54577       -4.62095        8.76105
C         -0.59123       -5.22964        9.29017
C         -0.97847       -5.96258       10.49427
C         -0.26639       -6.23967       11.60349
C          1.06596       -5.74279       11.91163
C          1.40344       -4.40793       11.70303
C          2.68459       -3.94545       11.96988
C          3.02797       -2.50482       11.73385
C          3.62867       -4.83430       12.46319
C          3.30782       -6.16476       12.71387
C          4.34685       -7.09044       13.27000
C          2.02343       -6.60605       12.44587
C         -2.34829       -6.39305       10.22728
C         -3.35062       -7.11595       10.87364
C         -4.50551       -7.21482       10.12471
C         -5.72508       -7.90296       10.45814
C         -5.94264       -8.36465       11.76570
C         -7.11288       -9.02599       12.04829
N         -7.50838       -9.58683       13.24704
C         -6.82846       -9.50979       14.51513
C         -7.35407       -8.36602       15.39664
C         -6.72134       -8.45937       16.78214
C         -7.07604       -7.00328       14.76887
C         -8.70888      -10.23356       13.10810
O         -9.27902      -10.76643       14.03826
C         -6.70824       -8.13490        9.48850
C         -7.87864       -8.80642        9.77573
C         -8.10886       -9.26315       11.06993
C         -9.14559      -10.06190       11.68302
C        -10.30613      -10.56483       11.16049
C        -11.17674      -11.61385       11.65596
C        -11.08666      -12.51977       12.70519
C        -12.06822      -13.48788       12.84960
C        -10.96797      -10.06881        9.91002
O        -10.64325       -9.16633        9.16425
N        -12.12300      -10.78901        9.75138
C        -13.06074      -10.54850        8.68645
C        -14.33247       -9.83258        9.16655
C        -13.98605       -8.47429        9.76874
C        -15.29723       -9.67645        7.99469
C        -12.25650      -11.73101       10.75168
C        -13.23325      -12.69528       10.89331
C        -13.13013      -13.57325       11.96365
H         30.01093       35.53366      -18.20529
H         30.13930       33.47946      -19.80586
H         28.89493       29.14427      -19.61295
H         31.59352       31.54820      -19.59817
H         33.30828       33.25601      -22.28754
H         34.10656       31.80526      -21.69009
H         33.31997       32.90108      -20.55279
H         32.09112       31.62187      -23.83270
H         29.43206       31.04716      -24.98447
H         29.18346       29.38067      -24.46172
H         30.74704       29.88443      -25.12113
H         28.75029       29.60285      -22.11729
H         27.85998       28.22942      -17.37646
H         26.42134       26.86288      -16.37213
H         25.06860       25.03328      -16.90823
H         24.41819       23.53442      -16.20192
H         26.24443       22.93298      -17.59459
H         28.55840       23.75167      -17.28229
H         28.01581       24.86982      -16.03281
H         27.47443       25.07252      -17.70625
H         26.02739       21.75885      -15.37690
H         27.25876       22.83164      -14.71613
H         27.67355       21.72099      -16.02077
H         27.00289       29.24803      -12.86422
H         26.09738       27.47212      -11.45660
H         22.94376       22.64576      -12.32105
H         21.86242       20.98509      -10.88899
H         25.19538       24.27813       -6.95406
H         26.12174       25.63077       -7.64977
H         27.91712       24.02992       -8.31181
H         28.10350       25.41071       -6.27120
H         28.85570       23.83728       -6.00962
H         27.26267       24.17430       -5.33207
H         26.42987       22.05271       -6.51356
H         28.01474       21.80485       -7.24070
H         26.58955       21.91293       -8.26985
H         24.07766       22.37490       -7.49787
H         23.75096       20.44586       -6.63199
H         23.00676       17.29340       -3.64098
H         22.66744       20.77443       -4.39904
H         23.46979       23.08978       -4.78368
H         25.10467       23.55965       -4.27981
H         23.85202       23.27346       -3.07588
H         26.68121       21.88196       -3.47069
H         28.08016       20.04059       -2.36528
H         28.34502       19.55497       -4.03663
H         27.76903       18.37053       -2.86209
H         25.59339       17.76243       -3.63753
H         20.93077       15.61942       -4.05773
H         20.18941       13.54262       -3.97897
H         19.69418       10.53079       -1.57664
H         20.36143       12.06502       -2.18355
H         21.84742       10.09771       -2.51518
H         19.75685        9.10174       -4.50498
H         20.01417        8.41741       -2.90077
H         21.29508        8.33314       -4.11702
H         20.86176       11.30509       -5.14259
H         22.40144       10.48237       -4.90169
H         22.08467       12.00171       -4.07139
H         17.06068       14.83451       -6.60186
H         15.67418       12.92452       -5.95048
H         16.67823        7.83096       -3.32762
H         15.41309        5.86625       -2.67195
H         11.15475        9.78690       -4.88284
H         11.67718       11.48606       -5.01099
H         11.06043       10.04278       -2.38720
H         11.18361       12.33635       -1.41594
H         11.68004       12.96986       -2.98961
H         12.72376       11.84770       -2.12014
H          9.42903       12.10695       -3.93838
H          9.01387       11.44872       -2.35528
H          9.02346       10.39673       -3.77047
H         11.71199        7.91474       -3.36632
H         14.28228        4.10995       -2.24621
H         12.89537        0.32448       -0.32827
H         14.82226        3.35183       -0.07107
H         16.75148        4.75292       -0.27429
H         18.07075        4.28011       -1.35532
H         18.06401        3.73360        0.31758
H         18.35894        1.78392       -1.86369
H         18.37305       -0.68456       -2.32792
H         17.40130       -0.34859       -3.75772
H         16.83557       -1.52717       -2.57428
H         14.75496       -0.49498       -1.91849
H         10.43842        0.23679        0.64384
H          6.15821        2.09883        0.32725
H          2.32028        1.52525        0.97499
H          3.74878        1.71001       -0.07454
H          4.54615        3.57597        1.40768
H          2.86409        5.23454        0.64026
H          1.71905        3.93432        0.30844
H          3.20799        4.06270       -0.63169
H          1.84964        3.19429        2.78540
H          2.95869        4.54111        3.06832
H          3.43049        2.90011        3.50600
H          9.09538       -0.27313        2.35340
H          7.38179       -1.28794        3.75171
H          1.58662       -1.77647        3.71045
H         -0.02027       -3.04719        5.04945
H          4.85558       -2.30441        8.78659
H          6.40279       -1.94767        7.97877
H          4.97718       -4.63385        7.72241
H          6.62339       -4.07717        5.94728
H          7.19620       -5.41030        6.94949
H          7.85619       -3.78602        7.17212
H          7.17520       -3.81819        9.67855
H          6.61616       -5.47067        9.41392
H          5.51918       -4.27338       10.09925
H          2.88329       -3.54888        8.16494
H          1.48674       -4.57818        9.27502
H         -0.70336       -6.91066       12.33326
H          0.64886       -3.72070       11.34960
H          2.57072       -2.14266       10.81432
H          4.10502       -2.36350       11.67583
H          2.65045       -1.89308       12.55338
H          4.63151       -4.48729       12.67139
H          5.22683       -7.10316       12.62843
H          3.96248       -8.10346       13.35525
H          4.66106       -6.75422       14.25759
H          1.76134       -7.63941       12.62403
H         -3.23277       -7.57196       11.83947
H         -5.20728       -8.19064       12.53325
H         -5.75688       -9.39615       14.33753
H         -7.00455      -10.45938       15.03016
H         -8.43658       -8.49812       15.49253
H         -6.95517       -9.41336       17.24827
H         -7.09573       -7.66446       17.42218
H         -5.63916       -8.36338       16.71431
H         -7.52167       -6.92902       13.77964
H         -6.00431       -6.83435       14.67979
H         -7.49317       -6.21323       15.38898
H         -6.53861       -7.78109        8.48225
H         -8.61196       -8.95649        9.00359
H        -10.27874      -12.46556       13.41272
H        -12.00269      -14.18614       13.67016
H        -13.31978      -11.50350        8.21713
H        -12.54404       -9.92099        7.95454
H        -14.80857      -10.44597        9.93973
H        -13.46488       -7.85827        9.03953
H        -13.34220       -8.58919       10.63798
H        -14.88993       -7.95618       10.08076
H        -15.55320      -10.64520        7.57054
H        -14.84712       -9.06710        7.21417
H        -16.21438       -9.19272        8.32148
H        -14.04903      -12.77584       10.19189
H        -13.88540      -14.33311       12.10009
