274
d1a10.out	Energy:   -9173.2844946
C         -4.47177       15.17488       11.45677
S         -3.13087       14.33234       12.15537
C         -2.30772       14.40510       10.65118
C         -1.04540       14.05287       10.12285
S          0.39266       13.27327       10.61445
C         -4.30075       15.48765       10.14264
C         -3.05982       15.03740        9.65236
C         -2.26736       15.09424        8.42749
C         -2.54904       15.58316        7.20265
C         -3.83036       16.06595        6.72501
C         -3.87795       17.16195        5.86348
C         -5.08716       17.63997        5.38523
C         -5.13694       18.84378        4.49385
C         -6.25842       16.99065        5.75513
C         -6.23633       15.87307        6.58106
C         -7.51200       15.16489        6.92558
C         -5.01943       15.41911        7.06209
C         -0.98860       14.48528        8.79004
C          0.21740       14.18424        8.17401
C          1.10137       13.51859        9.01523
C          2.37902       13.07013        8.60232
C          2.90014       13.21421        7.31204
C          2.61718       13.71243        5.99410
O          1.69177       14.36680        5.53914
N          3.70895       13.30257        5.20843
C          3.72102       13.65722        3.81036
C          2.68163       12.86628        2.99778
C          2.72331       13.32982        1.54535
C          2.91087       11.36110        3.08707
C          4.65085       12.62478        5.95124
C          4.16623       12.57042        7.25802
C          4.42636       12.01041        8.55101
O          5.35279       11.34710        8.98731
N          3.31009       12.36076        9.33045
C          3.32166       12.01861       10.73005
C          4.16105       13.00356       11.56056
C          3.57364       14.41077       11.52901
C          4.26088       12.49349       12.99455
C          5.87952       12.06957        5.51081
S          6.22726       11.68542        3.83014
C          7.72405       11.00703        4.28020
C          8.78839       10.35432        3.63530
S          9.19435        9.78042        2.07914
C          6.92365       11.68821        6.34848
C          7.98053       11.09482        5.66501
C          9.30937       10.53322        5.91725
C         10.12842       10.53381        6.98921
C          9.93636       10.98865        8.35238
C          8.77710       10.75772        9.08752
C          8.70333       11.13295       10.42364
C          7.48887       10.80397       11.23292
C          9.78167       11.78436       11.00431
C         10.94731       12.03814       10.28895
C         12.09446       12.74566       10.94525
C         11.02321       11.61210        8.97692
C          9.74912       10.03856        4.61101
C         10.81792        9.32691        4.08713
C         10.68605        9.08571        2.72323
C         11.45929        8.30492        1.82692
C         11.02750        7.90391        0.56294
C          9.95784        8.04571       -0.38206
O          8.95788        8.74374       -0.38752
N         10.28758        7.16573       -1.43386
C          9.28498        6.84598       -2.41729
C          8.65571        5.46177       -2.18686
C          8.10298        5.35663       -0.76776
C          7.55020        5.22826       -3.21156
C         11.46037        6.48493       -1.17180
C         11.93603        6.94222        0.04936
C         12.99802        6.78494        1.00441
O         13.97898        6.06677        1.01952
N         12.66674        7.67165        2.05642
C         13.63891        7.87964        3.09871
C         14.54726        9.10306        2.86341
C         15.25921        8.99502        1.51695
C         13.79467       10.42800        2.95364
C         12.03027        5.45898       -1.97218
S         13.02689        4.26943       -1.14877
C         13.14871        3.37364       -2.59970
C         13.67731        2.14027       -3.02650
S         14.48033        0.78451       -2.36345
C         11.88401        5.18009       -3.32292
C         12.51049        3.99546       -3.69449
C         12.68550        3.16102       -4.88205
C         12.43413        3.37729       -6.18716
C         11.82903        4.53794       -6.82152
C         12.45416        5.05955       -7.95635
C         11.93965        6.16350       -8.61168
C         12.63397        6.74903       -9.80327
C         10.75719        6.72624       -8.14395
C         10.09203        6.20293       -7.04520
C          8.79589        6.80366       -6.58898
C         10.64133        5.11328       -6.37998
C         13.37927        1.97153       -4.38853
C         13.76767        0.73418       -4.87792
C         14.37595       -0.05799       -3.91012
C         14.73530       -1.41104       -4.12322
C         14.33894       -2.17419       -5.22608
C         13.60696       -2.14300       -6.46353
O         13.07437       -1.23830       -7.08581
N         13.61158       -3.47759       -6.92253
C         12.67139       -3.87132       -7.94071
C         11.46907       -4.62747       -7.34965
C         10.79207       -3.79235       -6.26567
C         10.47820       -4.96688       -8.45813
C         14.28169       -4.30921       -6.04756
C         14.73893       -3.51972       -5.00307
C         15.44851       -3.57660       -3.75422
O         15.97137       -4.49518       -3.15356
N         15.41236       -2.25353       -3.26891
C         16.13135       -1.94466       -2.05936
C         17.61256       -1.62936       -2.32534
C         17.77908       -0.37362       -3.17551
C         18.33778       -1.47432       -0.99228
C         14.46106       -5.71278       -6.17905
S         14.78974       -6.61516       -4.70856
C         14.81387       -8.06499       -5.60744
C         15.00131       -9.44271       -5.35787
S         15.22514      -10.48818       -4.02902
C         14.42771       -6.52741       -7.30211
C         14.62939       -7.86844       -6.99129
C         14.74802       -9.15774       -7.67216
C         14.81394       -9.48471       -8.97695
C         14.68117       -8.63575      -10.14999
C         15.58221       -8.82801      -11.20027
C         15.50964       -8.06873      -12.35359
C         16.49463       -8.24998      -13.46786
C         14.49061       -7.12982      -12.47053
C         13.55809       -6.94502      -11.46084
C         12.44709       -5.95309      -11.63402
C         13.66674       -7.69370      -10.29509
C         14.95070      -10.11950       -6.58775
C         15.10972      -11.49037       -6.44695
C         15.28335      -11.87336       -5.12247
C         15.44065      -13.15302       -4.52374
C         15.30131      -13.40788       -3.16549
C         15.05420      -12.77931       -1.89897
O         14.92097      -11.61371       -1.56792
N         15.01376      -13.85572       -0.98473
C         14.75311      -13.66867        0.41723
C         13.34769      -14.13804        0.82418
C         13.16384      -13.94174        2.32596
C         12.28347      -13.37376        0.04241
C         15.21259      -15.04691       -1.61112
C         15.40002      -14.81884       -2.94531
C         15.63222      -15.44332       -4.22491
O         15.75547      -16.60276       -4.55525
N         15.67410      -14.36635       -5.14506
C         16.08196      -14.64994       -6.49784
C         17.59353      -14.47380       -6.74755
C         18.05287      -13.02266       -6.63267
C         18.40640      -15.35479       -5.80188
H         -5.31861       15.38947       12.07824
H         -5.03006       16.02787        9.56710
H         -1.73465       15.62119        6.48896
H         -2.95709       17.65453        5.58582
H         -4.18708       18.99011        3.98573
H         -5.34645       19.73590        5.08496
H         -5.92435       18.74239        3.75022
H         -7.20606       17.35252        5.38107
H         -7.87579       14.60883        6.06149
H         -8.28313       15.87848        7.21024
H         -7.36059       14.46444        7.74320
H         -4.97996       14.53003        7.67364
H          0.47003       14.42650        7.15719
H          4.71943       13.51483        3.39906
H          3.46292       14.72058        3.74729
H          1.69807       13.09843        3.41734
H          3.70242       13.13330        1.11291
H          2.52004       14.39569        1.47469
H          1.97700       12.79905        0.95973
H          3.84214       11.08614        2.59745
H          2.09779       10.83130        2.59623
H          2.95074       11.03296        4.12371
H          3.78066       11.02655       10.80161
H          2.30553       11.96021       11.11695
H          5.16423       13.03122       11.12247
H          3.47415       14.77025       10.50682
H          4.22169       15.09886       12.06693
H          2.59311       14.42451       12.00003
H          3.27202       12.43515       13.44482
H          4.87071       13.16607       13.59263
H          4.71220       11.50460       13.02029
H          6.87979       11.84237        7.41018
H         11.13297       10.16869        6.79834
H          7.94489       10.24117        8.63590
H          7.41313       11.45032       12.10430
H          7.54543        9.77096       11.57775
H          6.59678       10.90516       10.62265
H          9.72369       12.08899       12.04030
H         12.33754       12.27798       11.89795
H         11.83070       13.78466       11.14231
H         12.97766       12.72964       10.31158
H         11.92845       11.78247        8.41023
H         11.63485        8.96426        4.68042
H          9.69967        6.91901       -3.42520
H          8.51506        7.61624       -2.30223
H          9.42743        4.69562       -2.32151
H          7.39420        6.15944       -0.57673
H          8.90086        5.42313       -0.03083
H          7.59601        4.40441       -0.63043
H          6.77951        5.99011       -3.11845
H          7.09188        4.25469       -3.05579
H          7.94812        5.25976       -4.22224
H         14.26675        6.98206        3.08460
H         13.15525        7.94175        4.07328
H         15.30059        9.07677        3.65924
H         14.54856        9.10152        0.69938
H         15.75029        8.03063        1.41604
H         16.00642        9.77948        1.42138
H         13.02212       10.48687        2.19038
H         14.48507       11.25414        2.79834
H         13.32860       10.55450        3.92778
H         11.37232        5.83095       -4.00525
H         12.78610        2.61694       -6.87504
H         13.36617        4.60067       -8.31070
H         13.14791        7.66804       -9.52059
H         11.91698        6.99485      -10.58409
H         13.36939        6.05662      -10.20480
H         10.33992        7.57928       -8.66043
H          8.43452        7.53354       -7.30876
H          8.91922        7.30690       -5.62995
H          8.03755        6.03167       -6.46870
H         10.11886        4.67014       -5.54447
H         13.59617        0.38095       -5.87871
H         13.16408       -4.47001       -8.70994
H         12.32716       -2.93655       -8.39504
H         11.82911       -5.56033       -6.90140
H         10.49512       -2.82426       -6.66332
H         11.46054       -3.62506       -5.42373
H          9.90603       -4.30287       -5.89569
H          9.61828       -5.48978       -8.04669
H         10.94027       -5.60596       -9.20495
H         10.12749       -4.05980       -8.94536
H         16.07462       -2.84387       -1.43730
H         15.65560       -1.12006       -1.52952
H         18.03891       -2.48212       -2.86459
H         17.38105        0.49412       -2.65340
H         17.26443       -0.47315       -4.12912
H         18.83282       -0.19688       -3.37868
H         19.39338       -1.27383       -1.15766
H         18.24955       -2.38149       -0.39979
H         17.91532       -0.64696       -0.42573
H         14.30920       -6.15065       -8.29990
H         15.05467      -10.51787       -9.20231
H         16.35986       -9.57146      -11.09553
H         17.12995       -9.11395      -13.29114
H         17.12845       -7.36773      -13.55468
H         15.97746       -8.38223      -14.41672
H         14.41540       -6.54499      -13.37649
H         12.36741       -5.64075      -12.67212
H         12.62698       -5.06492      -11.02791
H         11.49595       -6.38524      -11.32831
H         12.92960       -7.58580       -9.51259
H         15.06587      -12.17856       -7.26897
H         14.84908      -12.59505        0.60461
H         15.50902      -14.20314        1.00216
H         13.25722      -15.20584        0.59233
H         13.24969      -12.88811        2.58143
H         13.91627      -14.49440        2.88443
H         12.18211      -14.29115        2.63571
H         12.38857      -12.30409        0.20828
H         11.28851      -13.67940        0.35742
H         12.37667      -13.56246       -1.02496
H         15.21226      -15.96935       -1.06106
H         15.50540      -14.05647       -7.20655
H         15.83461      -15.70558       -6.65443
H         17.76834      -14.81272       -7.77540
H         17.88799      -12.64319       -5.62696
H         17.52578      -12.38109       -7.33460
H         19.11746      -12.95736       -6.84622
H         18.32477      -14.99360       -4.77844
H         19.45666      -15.34068       -6.08395
H         18.05135      -16.38163       -5.82802
