170
d1a3.out	Energy:  -16987.9484637
C         27.88795       -4.73902        2.54925
S         27.44158       -3.07991        2.76559
C         25.96288       -3.37393        1.94915
C         24.77931       -2.66560        1.62662
S         24.12594       -1.09091        1.78508
C         26.95647       -5.47450        1.88162
C         25.84177       -4.69765        1.51228
C         24.53702       -4.86704        0.87599
C         23.96437       -5.95123        0.31749
C         24.59394       -7.23405        0.05833
C         23.87636       -8.41418        0.26209
C         24.45308       -9.64788        0.01777
C         23.69858      -10.91914        0.26515
C         25.75773       -9.69701       -0.46414
C         26.48001       -8.53883       -0.70961
C         27.87178       -8.59455       -1.26397
C         25.88987       -7.31099       -0.44455
C         23.89897       -3.55634        0.99839
C         22.69690       -2.95366        0.64036
C         22.64918       -1.61585        0.99681
C         21.57644       -0.69567        0.79639
C         20.38030       -1.03589        0.16364
N         19.35148       -0.23211       -0.04344
C         19.37894        1.03290        0.35894
C         20.54042        1.53865        1.01636
C         21.65530        0.65458        1.23672
N         22.68286        1.21785        1.85496
Se        22.30414        2.89680        2.19563
N         20.71331        2.77073        1.46306
C         18.23413        1.83993        0.11247
S         18.18354        3.53094        0.55106
C         16.59278        3.64096       -0.08079
C         15.56561        4.59834       -0.17677
S         15.28999        6.24233        0.22089
C         17.06287        1.40661       -0.49114
C         16.12774        2.42354       -0.62622
C         14.75692        2.60995       -1.10130
C         13.90236        1.74642       -1.68650
C         14.19992        0.39586       -2.12532
C         13.24640       -0.61144       -1.96065
C         13.51396       -1.91226       -2.34817
C         12.50622       -3.00365       -2.14770
C         14.74625       -2.20288       -2.92661
C         15.69522       -1.21394       -3.13781
C         17.02196       -1.52428       -3.76117
C         15.40887        0.08489       -2.74185
C         14.44226        3.99597       -0.76933
C         13.36739        4.86913       -0.89860
C         13.64849        6.13210       -0.40892
C         12.78481        7.26640       -0.36856
C         13.19726        8.49923        0.13832
N         12.47094        9.59915        0.21995
C         11.21183        9.61047       -0.20252
C         10.63891        8.42134       -0.74807
C         11.43909        7.22529       -0.83663
N         10.79985        6.18808       -1.36101
Se         9.15882        6.66046       -1.77145
N          9.40319        8.29987       -1.19935
C         10.47123       10.81820       -0.09004
S          8.78594       10.90772       -0.54571
C          8.75568       12.55802       -0.08561
C          7.84470       13.62953       -0.10442
S          6.21287       13.92735       -0.53433
C         10.96276       12.02508        0.38874
C          9.99431       13.01885        0.41477
C          9.87175       14.44057        0.73990
C         10.77881       15.30819        1.23227
C         12.11547       14.99192        1.70097
C         13.16907       15.86784        1.42999
C         14.45730       15.57772        1.84286
C         15.59767       16.49874        1.52988
C         14.68830       14.40375        2.55396
C         13.65350       13.53653        2.87106
C         13.90158       12.27179        3.63478
C         12.36820       13.84451        2.44788
C          8.50000       14.78087        0.37029
C          7.67126       15.89590        0.38050
C          6.39406       15.61203       -0.08319
C          5.29237       16.50715       -0.22024
C          5.35692       17.86899        0.08150
N          4.36955       18.73997       -0.03304
C          3.17076       18.36428       -0.46421
C          2.94322       16.99941       -0.81422
C          4.02562       16.05967       -0.68953
N          3.71422       14.82092       -1.04033
Se         2.03593       14.76678       -1.54852
N          1.80978       16.48295       -1.25779
C          2.15073       19.34961       -0.57196
S          0.56098       18.96044       -1.18461
C          0.09369       20.59830       -0.99472
C         -1.06645       21.38050       -1.15694
S         -2.68567       21.19395       -1.68349
C          2.28506       20.68989       -0.23971
C          1.13012       21.41739       -0.49543
C          0.62345       22.78187       -0.34435
C          1.23390       23.90296        0.09036
C          2.64148       24.05936        0.40600
C          3.62988       23.46054       -0.37257
C          4.97131       23.59319       -0.04815
C          6.00843       22.90044       -0.87856
C          5.32210       24.35538        1.05811
C          4.35951       24.99922        1.82652
C          4.75069       25.82664        3.01361
C          3.02385       24.85243        1.48826
C         -0.77610       22.69591       -0.75251
C         -1.87092       23.54314       -0.87854
C         -2.99243       22.89083       -1.36707
C         -4.28624       23.44666       -1.61693
C         -4.60544       24.78255       -1.39770
N         -5.79638       25.34144       -1.61771
C         -6.78998       24.63158       -2.07712
C         -6.63897       23.25640       -2.35494
C         -5.35380       22.64779       -2.11897
N         -5.29875       21.35580       -2.40553
Se        -6.86610       20.83235       -2.98984
N         -7.56524       22.42631       -2.82239
H         28.83017       -5.06999        2.93915
H         27.06763       -6.52485        1.68294
H         22.92279       -5.87311        0.02893
H         22.86479       -8.35774        0.63891
H         22.65848      -10.71528        0.50614
H         24.14455      -11.46469        1.09657
H         23.73597      -11.56240       -0.61251
H         26.20965      -10.65918       -0.66133
H         28.25193       -9.61299       -1.26421
H         28.54313       -7.96848       -0.67811
H         27.88185       -8.22240       -2.28838
H         26.42780       -6.40006       -0.66131
H         21.88537       -3.45762        0.14838
H         20.23409       -2.03983       -0.20986
H         16.94239        0.38156       -0.78606
H         12.88203        2.07973       -1.83456
H         12.29888       -0.37086       -1.49950
H         11.55680       -2.60048       -1.80497
H         12.86671       -3.71570       -1.40561
H         12.34161       -3.54677       -3.07694
H         14.95927       -3.21963       -3.22623
H         17.06396       -2.55600       -4.10085
H         17.81972       -1.36345       -3.03586
H         17.20805       -0.86744       -4.60935
H         16.12062        0.87191       -2.93917
H         12.40962        4.62865       -1.32040
H         14.20878        8.60126        0.51224
H         11.99194       12.12362        0.67766
H         10.49951       16.35451        1.27091
H         12.97449       16.76950        0.86635
H         15.24193       17.42372        1.08336
H         16.28511       16.02083        0.83235
H         16.15486       16.73745        2.43435
H         15.69487       14.17225        2.87317
H         14.92236       12.23157        4.00593
H         13.73307       11.40973        2.98903
H         13.21701       12.19339        4.47763
H         11.54675       13.20118        2.72423
H          7.96942       16.87547        0.70638
H          6.28130       18.29800        0.44249
H          3.19983       21.06430        0.17894
H          0.61673       24.78118        0.23871
H          3.34621       22.91041       -1.25671
H          5.89012       21.82018       -0.79522
H          7.01143       23.16606       -0.55511
H          5.89659       23.16577       -1.92839
H          6.36548       24.46084        1.32084
H          5.80832       26.07645        2.98349
H          4.55596       25.27475        3.93364
H          4.17175       26.74750        3.04867
H          2.26435       25.33719        2.08543
H         -1.86588       24.58750       -0.62622
H         -3.86114       25.46730       -1.01823
H         -7.73318       25.13223       -2.23797
