202
d2a4.out	Energy:  -10997.0235845
C          9.22969      -11.63297       -3.75629
S          8.56438      -10.23923       -2.97455
C         10.05296       -9.41494       -3.17653
C         10.62143       -8.16996       -2.81383
S         10.16565       -6.70303       -2.04903
C         10.52189      -11.47151       -4.15709
C         11.01072      -10.18955       -3.84354
C         12.25428       -9.42622       -3.92846
C         13.44469       -9.73362       -4.47864
C         13.75108      -10.88867       -5.30427
C         12.85813      -11.33385       -6.28211
C         13.17148      -12.41246       -7.08275
C         14.38691      -13.06657       -6.91307
C         14.70720      -14.22937       -7.80479
F         13.68536      -15.10072       -7.89580
F         14.97211      -13.84167       -9.06945
F         15.77174      -14.93545       -7.39957
C         15.29718      -12.62375       -5.96222
C         14.98182      -11.53555       -5.17368
C         11.96092       -8.17173       -3.23344
C         12.61645       -6.98658       -2.93125
C         11.78854       -6.07739       -2.28518
C         12.11753       -4.76829       -1.85432
C         13.40260       -4.19376       -1.99306
N         14.49007       -4.78880       -2.48732
S         15.72732       -3.76432       -2.44574
N         14.95776       -2.50864       -1.80214
C         13.68142       -2.83290       -1.58689
C         11.13879       -3.93689       -1.26114
N          9.90540       -4.43892       -1.07583
C          8.96507       -3.70425       -0.54469
C          7.62048       -4.32069       -0.36250
C          9.23646       -2.35767       -0.15756
C          8.19133       -1.48435        0.44712
N         10.42925       -1.85252       -0.32754
C         11.40990       -2.59509       -0.86906
C         12.68043       -1.99763       -1.03697
C         12.89335       -0.64546       -0.68318
S         11.60402        0.32471        0.00042
C         12.66361        1.67955        0.06854
C         12.60977        3.04372        0.39616
S         11.47649        4.18413        0.98921
C         14.07522        0.07106       -0.83502
C         13.96369        1.37933       -0.39941
C         14.78138        2.59179       -0.35954
C         16.06358        2.76758       -0.72868
C         16.96186        1.69764       -1.14229
C         17.75259        1.84018       -2.28284
C         18.55712        0.80533       -2.71742
C         18.60219       -0.37939       -1.99333
C         19.41840       -1.53722       -2.48386
F         20.41901       -1.17642       -3.30001
F         19.97545       -2.24466       -1.48708
F         18.66877       -2.42107       -3.18320
C         17.86193       -0.51897       -0.82524
C         17.05270        0.51575       -0.40436
C         13.87009        3.62537        0.12620
C         13.90278        4.98027        0.39435
C         12.68272        5.46114        0.86806
C         12.33847        6.78790        1.22009
C         11.03730        7.08210        1.69300
N         10.07094        6.18230        1.87066
S          8.75165        6.91378        2.42923
N          9.33617        8.41223        2.47379
C         10.60111        8.40876        2.04855
C         13.21920        7.90219        1.12957
N         14.48952        7.73422        0.71320
C         15.29730        8.75965        0.62752
C         16.69410        8.50296        0.16641
C         14.85762       10.07010        0.96499
C         15.74920       11.26106        0.87675
N         13.63001       10.25364        1.37202
C         12.78082        9.21752        1.47428
C         11.47280        9.51462        1.93145
C         11.10214       10.83998        2.24681
S         12.24252       12.16122        2.09561
C         11.03765       13.25888        2.65128
C         10.88712       14.63722        2.86401
S         11.81484       16.07122        2.72823
C          9.85688       11.25983        2.70556
C          9.81388       12.61856        2.95847
C          8.84305       13.62278        3.39519
C          7.55440       13.47123        3.75242
C          6.87002       12.19351        3.89708
C          7.46105       11.13845        4.59548
C          6.82890        9.91674        4.69291
C          5.58704        9.73558        4.09387
C          4.94514        8.38374        4.18446
F          5.69552        7.42642        3.59596
F          4.77689        7.97922        5.45833
F          3.73863        8.32010        3.60611
C          4.96501       10.78585        3.43234
C          5.60084       12.00917        3.34807
C          9.56712       14.88869        3.30403
C          9.32784       16.22870        3.54169
C         10.44174       17.02581        3.28231
C         10.57416       18.43044        3.40085
C         11.77003       19.06325        2.99611
N         12.85024       18.44913        2.51624
S         13.97242       19.54597        2.16052
N         13.14436       20.85536        2.59451
C         11.94432       20.48920        3.04397
C          9.57355       19.30320        3.91517
N          8.41330       18.77171        4.34911
C          7.49051       19.53262        4.87450
C          6.22582       18.88353        5.32834
C          7.70434       20.93170        5.01252
C          6.70433       21.81592        5.67766
N          8.80035       21.48038        4.56073
C          9.76114       20.72313        3.99326
C         10.94053       21.36118        3.51672
C         11.15211       22.76319        3.49542
S         12.70179       23.39665        2.95497
C         12.14483       24.99550        3.20990
C         12.65626       26.30318        3.14128
S         14.11026       27.10614        2.70138
C         10.26487       23.78058        3.83468
C         10.80596       25.04465        3.66093
C         10.43469       26.44429        3.87671
C          9.27665       26.99912        4.28376
C          7.99962       26.33112        4.46136
C          7.15697       26.70567        5.51147
C          5.92868       26.10179        5.68103
C          5.51285       25.12526        4.78220
C          4.16528       24.49788        4.97677
F          3.96406       24.09857        6.24739
F          3.15740       25.34512        4.69304
F          3.96674       23.41156        4.21194
C          6.32184       24.76497        3.71175
C          7.55607       25.36295        3.55786
C         11.65056       27.19396        3.56805
C         12.06368       28.51604        3.53749
C         13.37440       28.64910        3.09405
C         14.11131       29.85150        2.93987
C         13.59706       31.13180        3.24376
N         12.38426       31.42771        3.71411
S         12.27112       33.02164        3.90199
N         13.73628       33.43183        3.40418
C         14.40435       32.32288        3.05826
C         15.43830       29.82116        2.45525
N         15.96635       28.62051        2.15660
C         17.18613       28.53493        1.70300
C         17.71841       27.17861        1.38959
C         17.96870       29.72124        1.51973
C         19.36510       29.64782        0.99850
N         17.48932       30.89888        1.80010
C         16.22223       31.00596        2.27464
C         15.70634       32.26107        2.57652
H          8.61088      -12.50056       -3.87167
H         11.08635      -12.24857       -4.63959
H         14.26917       -9.05540       -4.29735
H         11.92895      -10.80588       -6.42895
H         12.48168      -12.75238       -7.84056
H         16.24403      -13.12830       -5.84613
H         15.68734      -11.18859       -4.43380
H         13.64171       -6.75381       -3.15048
H          7.64435       -5.34487       -0.72291
H          6.86858       -3.75923       -0.91498
H          7.33935       -4.31249        0.68952
H          7.34948       -1.37341       -0.23464
H          8.61822       -0.50798        0.65660
H          7.81866       -1.92324        1.37143
H         14.94503       -0.38660       -1.26550
H         16.46295        3.77315       -0.75168
H         17.70932        2.75848       -2.84901
H         19.14902        0.91142       -3.61369
H         17.91999       -1.43443       -0.25694
H         16.48635        0.41811        0.50837
H         14.74193        5.63643        0.26388
H         16.82582        7.44304       -0.03044
H         17.40722        8.81740        0.92701
H         16.90230        9.06559       -0.74248
H         16.61446       11.13535        1.52604
H         15.19579       12.14506        1.17932
H         16.11009       11.39005       -0.14257
H          9.05000       10.56182        2.82194
H          6.95885       14.35924        3.92044
H          8.41693       11.28962        5.07163
H          7.29254        9.09970        5.22419
H          3.99305       10.64285        2.98572
H          5.12366       12.82496        2.82604
H          8.40743       16.66149        3.88378
H          6.26074       17.81951        5.11294
H          5.37024       19.32759        4.82176
H          6.09156       19.02648        6.39962
H          5.76361       21.79964        5.12999
H          7.08306       22.83346        5.71819
H          6.50553       21.46810        6.69011
H          9.28296       23.55182        4.20186
H          9.28136       28.06010        4.50107
H          7.48060       27.46582        6.20638
H          5.28640       26.38190        6.50222
H          5.98583       24.02080        3.00620
H          8.17503       25.10409        2.71389
H         11.47787       29.37213        3.81692
H         16.95594       26.43605        1.60618
H         18.60557       26.97202        1.98650
H         17.99861       27.11453        0.33911
H         19.98495       29.04287        1.65850
H         19.77705       30.65064        0.93564
H         19.37739       29.18932        0.01085
H         16.29916       33.14871        2.43981
