186
d3a11.out	Energy:  -10254.5071274
C         20.63456      -12.76193        4.13947
S         18.99043      -12.38189        4.52704
C         19.31394      -10.72011        4.26958
C         18.59467       -9.49850        4.25603
S         17.00143       -8.92698        4.53625
C         21.39106      -11.67085        3.83602
C         20.64797      -10.47771        3.92079
C         20.81632       -9.04701        3.67520
C         21.88977       -8.32658        3.29656
C         23.26195       -8.78466        3.17268
C         24.05868       -8.30757        2.12885
C         25.36983       -8.71577        1.99578
C         25.91043       -9.59717        2.92406
C         27.34527      -10.02063        2.81283
F         27.81696       -9.95688        1.55841
F         28.16185       -9.24599        3.55785
F         27.54867      -11.28058        3.23243
C         25.14488      -10.05184        3.99145
C         23.83052       -9.64846        4.11115
C         19.48121       -8.48099        3.87947
C         18.87310       -7.23196        3.82453
C         17.52635       -7.29861        4.14678
C         16.58671       -6.25337        4.16742
C         15.22408       -6.37264        4.44812
N         14.60912       -7.52404        4.76588
C         13.32236       -7.46802        4.99760
C         12.63535       -8.74387        5.34803
C         12.60062       -6.23131        4.91858
C         11.13665       -6.17785        5.19891
N         13.18430       -5.10263        4.59925
C         14.50814       -5.14190        4.35505
C         15.32818       -4.06217        4.00132
S         16.97139       -4.60099        3.80255
C         14.94182       -2.72819        3.78314
S         16.11637       -1.48995        3.36053
C         14.85503       -0.33702        3.23635
C         14.71696        1.03389        2.96429
S         15.70667        2.36470        2.53853
C         13.64458       -2.23448        3.82259
C         13.58149       -0.88726        3.48910
C         12.58076        0.17362        3.35672
C         11.24084        0.12922        3.48279
C         10.42363       -1.06217        3.64605
C          9.32621       -1.04423        4.51041
C          8.53390       -2.16244        4.66687
C          8.81612       -3.31352        3.93867
C          7.93263       -4.51098        4.12751
F          6.65127       -4.25779        3.80094
F          8.30464       -5.57287        3.39762
F          7.90849       -4.92924        5.40923
C          9.88172       -3.33845        3.04855
C         10.67614       -2.21852        2.90572
C         13.35404        1.37697        3.04833
C         13.11436        2.71234        2.75402
C         14.28415        3.39753        2.44795
C         14.41046        4.73797        2.04598
C         13.39842        5.68548        1.83365
N         12.08380        5.50270        2.05530
C         11.28321        6.50171        1.77555
C          9.82668        6.30209        2.03220
C         11.77337        7.73719        1.24612
C         10.84977        8.85849        0.90900
N         13.05081        7.93727        1.03417
C         13.89030        6.92744        1.32439
C         15.28279        6.94516        1.15720
S         15.95624        5.42222        1.64573
C         16.07465        7.97200        0.61639
S         17.82043        7.79793        0.49113
C         17.91418        9.31016       -0.30761
C         18.88688       10.07008       -0.97869
S         20.56696        9.99697       -1.31927
C         15.62377        9.17171        0.08038
C         16.65820        9.93943       -0.43901
C         16.83468       11.17115       -1.21163
C         15.93859       12.10734       -1.57864
C         14.55426       12.19946       -1.14708
C         14.18543       11.93538        0.17338
C         12.86902       12.04186        0.57529
C         11.89891       12.41590       -0.34580
C         10.45462       12.52095        0.04586
F         10.22682       12.23870        1.33700
F          9.95205       13.75071       -0.16798
F          9.67423       11.67784       -0.66222
C         12.25124       12.70863       -1.65926
C         13.57067       12.61311       -2.04951
C         18.25243       11.17924       -1.57111
C         19.12524       11.95355       -2.32207
C         20.41849       11.44518       -2.30361
C         21.55604       11.89763       -2.98716
C         22.83271       11.33559       -2.89096
N         23.17077       10.31137       -2.09182
C         24.41519        9.90432       -2.14183
C         24.79371        8.76841       -1.25279
C         25.37638       10.51841       -3.01171
C         26.78720       10.03759       -3.06266
N         25.05962       11.51939       -3.79525
C         23.78730       11.94795       -3.74987
C         23.25303       12.98150       -4.52285
S         21.56494       13.19635       -4.14773
C         23.93795       13.70233       -5.51278
S         25.63098       13.34521       -5.80484
C         25.63838       14.48738       -7.08599
C         26.55896       15.02393       -8.00856
S         28.20458       14.83215       -8.44235
C         23.43406       14.66423       -6.37633
C         24.38609       15.09976       -7.29046
C         24.50073       16.05613       -8.39360
C         23.57607       16.86346       -8.94611
C         22.15166       16.86731       -8.65122
C         21.46366       18.07533       -8.52640
C         20.11292       18.09447       -8.23987
C         19.42691       16.89582       -8.09633
C         17.95811       16.87462       -7.79291
F         17.45494       18.08016       -7.49579
F         17.23093       16.40680       -8.82760
F         17.66447       16.07396       -6.74968
C         20.08690       15.68259       -8.25968
C         21.43833       15.67203       -8.53544
C         25.90420       15.98541       -8.79652
C         26.73384       16.55637       -9.75548
C         28.02045       16.04475       -9.70259
C         29.10323       16.40074      -10.53793
C         29.10011       17.30799      -11.60060
N         28.04861       18.02927      -12.03599
C         28.24999       18.82216      -13.05625
C         27.08263       19.61660      -13.54160
C         29.53401       18.93320      -13.69313
C         29.73417       19.85117      -14.85330
N         30.56768       18.24721      -13.29280
C         30.38387       17.41495      -12.24047
C         31.33337       16.60242      -11.66778
S         30.68388       15.71027      -10.36196
H         20.94215      -13.78842        4.16091
H         22.42518      -11.73761        3.55119
H         21.72492       -7.28653        3.04311
H         23.63546       -7.62350        1.40869
H         25.97624       -8.35532        1.17901
H         25.58189      -10.71797        4.71993
H         23.24169       -9.97473        4.95395
H         19.35094       -6.30558        3.55995
H         13.35708       -9.55537        5.32132
H         11.83010       -8.94885        4.64446
H         12.20181       -8.68037        6.34515
H         10.58401       -6.74695        4.45234
H         10.80562       -5.14315        5.17652
H         10.91454       -6.60367        6.17547
H         12.82446       -2.87306        4.09203
H         10.70304        1.06887        3.46281
H          9.10850       -0.14991        5.07456
H          7.69412       -2.15131        5.34517
H         10.08593       -4.22738        2.47214
H         11.48599       -2.22499        2.19395
H         12.16230        3.20931        2.73909
H          9.66556        5.31408        2.45383
H          9.26184        6.39301        1.10550
H          9.45671        7.05570        2.72554
H         10.07072        8.52735        0.22496
H         11.41900        9.65703        0.44199
H         10.36698        9.24231        1.80687
H         14.57587        9.40595        0.06732
H         16.26563       12.87354       -2.27044
H         14.94373       11.67028        0.89254
H         12.59484       11.83786        1.59891
H         11.49041       13.01345       -2.36182
H         13.84614       12.84173       -3.06793
H         18.86911       12.83667       -2.87988
H         23.92292        8.45860       -0.68202
H         25.58701        9.06734       -0.56916
H         25.15692        7.92780       -1.84224
H         27.25447       10.12053       -2.08254
H         27.34140       10.63762       -3.77883
H         26.82169        8.99166       -3.36414
H         22.41702       15.00556       -6.30712
H         23.91022       17.58937       -9.67656
H         22.00059       19.00571       -8.63441
H         19.59051       19.03204       -8.12760
H         19.53824       14.75732       -8.16802
H         21.94972       14.73456       -8.68771
H         26.46424       17.30598      -10.47589
H         26.21198       19.38619      -12.93406
H         26.86648       19.37881      -14.58219
H         27.29352       20.68312      -13.47693
H         29.50719       20.87797      -14.57045
H         29.07673       19.57432      -15.67611
H         30.76747       19.78851      -15.18203
H         32.36049       16.48810      -11.94642
