274
d4a10.out	Energy:  -11554.4137234
C         15.93886       28.81350       -3.92523
S         16.48014       27.29642       -4.55155
C         15.48612       26.47819       -3.42324
C         15.22584       25.14481       -3.01992
S         15.67249       23.55590       -3.44716
C         15.03741       28.69891       -2.91022
C         14.74907       27.35249       -2.61381
C         13.96631       26.56652       -1.66093
C         13.09232       26.92742       -0.70071
C         12.57443       28.25884       -0.44989
C         12.25575       29.12393       -1.49661
C         11.75427       30.38895       -1.23185
C         11.46822       31.29402       -2.39983
F         12.60666       31.66132       -3.02235
F         10.71379       30.69394       -3.33394
F         10.84005       32.42212       -2.05904
C         11.54900       30.82298        0.06896
C         11.83402       29.94508        1.10801
C         11.62242       30.41240        2.52382
F         10.51544       31.15562        2.65744
F         11.51831       29.40264        3.39632
F         12.64491       31.17811        2.94996
C         12.33410       28.67856        0.86107
C         14.33599       25.17729       -1.93816
C         14.01786       23.91458       -1.45904
C         14.66669       22.90133       -2.15501
C         14.46482       21.52316       -1.89533
C         13.48655       21.01114       -1.03629
C         12.45084       21.36189       -0.10033
O         12.06488       22.43463        0.33205
N         11.88883       20.13234        0.29725
C         10.85171       20.11897        1.29654
C         11.36025       19.67714        2.67939
C         12.34025       20.70507        3.23720
C         10.17514       19.49385        3.62328
C         12.49329       19.06578       -0.33428
C         13.48926       19.59808       -1.15021
C         14.50211       19.22826       -2.09530
O         14.83590       18.14314       -2.53913
N         15.09058       20.44653       -2.48580
C         16.27868       20.41298       -3.30118
C         17.58734       20.35303       -2.48601
C         17.85102       21.63546       -1.70188
C         17.59792       19.15199       -1.54320
C         12.18580       17.68635       -0.22257
S         13.16264       16.57336       -1.18290
C         12.29057       15.25436       -0.54333
C         12.33709       13.84503       -0.59150
S         13.22037       12.61406       -1.37464
C         11.22818       17.01552        0.53088
C         11.27018       15.63849        0.35230
C         10.63692       14.43688        0.89857
C          9.64333       14.27479        1.79365
C          8.78741       15.31030        2.34217
C          8.28983       16.33750        1.53832
C          7.45186       17.30114        2.07512
C          6.90837       18.38866        1.18734
F          5.72859       18.05243        0.64148
F          6.71385       19.53992        1.84303
F          7.73318       18.66806        0.16408
C          7.08286       17.26959        3.41373
C          7.56365       16.23490        4.20453
C          7.20863       16.19744        5.66748
F          6.03585       16.78469        5.93253
F          7.13626       14.94954        6.14818
F          8.13132       16.83682        6.41211
C          8.39619       15.25920        3.68154
C         11.37374       13.32957        0.29195
C         11.36342       11.94550        0.33756
C         12.31354       11.37515       -0.50590
C         12.51374        9.97859       -0.61170
C         11.82424        9.01324        0.13431
C         10.84435        8.81508        1.16793
O         10.16877        9.59886        1.81391
N         10.78826        7.41842        1.36309
C          9.83371        6.91124        2.31914
C          8.47416        6.50124        1.71727
C          7.89654        7.63273        0.86985
C          8.53252        5.21365        0.89913
C         11.69480        6.75991        0.55686
C         12.31322        7.73448       -0.22668
C         13.31265        7.91082       -1.24037
O         13.98480        7.10913       -1.86681
N         13.38901        9.30061       -1.43123
C         14.34974        9.80860       -2.37893
C         15.78637        9.76756       -1.83189
C         16.74673       10.24699       -2.91542
C         15.93887       10.60865       -0.56840
C         12.05186        5.38738        0.54545
S         13.25465        4.87482       -0.64185
C         13.20576        3.29028       -0.01133
C         13.80504        2.03826       -0.26484
S         14.95847        1.35576       -1.31993
C         11.66534        4.33645        1.36901
C         12.31502        3.14707        1.07335
C         12.31970        1.75170        1.51677
C         11.56623        1.10980        2.42882
C         10.60151        1.72497        3.32620
C          9.34274        1.14694        3.49744
C          8.40839        1.74402        4.32706
C          7.02992        1.15322        4.46432
F          6.98000       -0.13893        4.12085
F          6.55812        1.24176        5.71507
F          6.14129        1.79093        3.67867
C          8.70289        2.91246        5.01704
C          9.96958        3.46224        4.87401
C         10.31261        4.70180        5.65650
F          9.29713        5.57817        5.68741
F         10.61981        4.42597        6.93321
F         11.36483        5.35906        5.14440
C         10.91448        2.87902        4.04520
C         13.29032        1.09601        0.64191
C         13.84183       -0.16483        0.48766
C         14.78252       -0.21551       -0.53816
C         15.49640       -1.39015       -0.87462
C         15.36819       -2.61926       -0.21422
C         14.69926       -3.30890        0.85796
O         13.85108       -2.95458        1.65952
N         15.22406       -4.61631        0.83388
C         14.81649       -5.55926        1.84327
C         15.87780       -5.75460        2.93953
C         16.06874       -4.46300        3.72922
C         15.45271       -6.89349        3.86207
C         16.14611       -4.77797       -0.17793
C         16.24062       -3.55020       -0.83024
C         16.91552       -2.88473       -1.90662
O         17.73670       -3.27887       -2.71664
N         16.42128       -1.56922       -1.87992
C         16.96539       -0.61649       -2.81537
C         18.36083       -0.12268       -2.39767
C         18.90136        0.81536       -3.47189
C         18.33602        0.57352       -1.04050
C         16.87379       -5.94281       -0.52886
S         17.99846       -5.80284       -1.88191
C         18.45723       -7.43168       -1.67075
C         19.40743       -8.33251       -2.20243
S         20.60169       -8.36910       -3.41923
C         16.87797       -7.22221        0.01640
C         17.76413       -8.07767       -0.62623
C         18.28295       -9.43875       -0.47770
C         17.97266      -10.42547        0.38509
C         16.86459      -10.44631        1.32224
C         15.60070       -9.97849        0.95858
C         14.54949      -10.03347        1.85950
C         13.19000       -9.54501        1.43583
F         13.26842       -8.54145        0.54520
F         12.46631      -10.51308        0.85077
F         12.46204       -9.08675        2.46127
C         14.72134      -10.55379        3.13542
C         15.97541      -11.03561        3.48616
C         16.19371      -11.57037        4.87673
F         15.09003      -12.11705        5.40058
F         17.15143      -12.50510        4.92627
F         16.57332      -10.59426        5.72383
C         17.03441      -10.99600        2.59458
C         19.34287       -9.53483       -1.47915
C         20.26629      -10.47631       -1.90805
C         21.04307      -10.01345       -2.96350
C         22.09373      -10.76583       -3.54836
C         22.56434      -11.98743       -3.07325
C         22.39472      -12.98587       -2.05095
O         21.59740      -13.10805       -1.13402
N         23.42146      -13.91832       -2.30447
C         23.59354      -15.11610       -1.52570
C         23.18812      -16.38358       -2.29377
C         23.45542      -17.60892       -1.42506
C         21.71891      -16.31551       -2.69935
C         24.16690      -13.55619       -3.38253
C         23.67649      -12.38420       -3.88471
C         23.87177      -11.37405       -4.89874
O         24.67386      -11.26192       -5.79780
N         22.86450      -10.41657       -4.63339
C         22.68640       -9.30178       -5.52696
C         21.47995       -9.47398       -6.46378
C         21.29961       -8.20354       -7.28816
C         21.67433      -10.68854       -7.36664
H         16.32673       29.71526       -4.35520
H         14.62718       29.55237       -2.40262
H         12.73186       26.15102       -0.03831
H         12.37097       28.79521       -2.51791
H         11.16053       31.80894        0.27072
H         12.54989       28.01364        1.68381
H         13.34494       23.70888       -0.64568
H         10.02308       19.49452        0.95570
H         10.49554       21.15182        1.36423
H         11.88598       18.72071        2.57798
H         11.85631       21.67316        3.34034
H         13.19583       20.82164        2.57573
H         12.70304       20.39133        4.21306
H          9.60977       20.41900        3.70445
H         10.51890       19.21209        4.61519
H          9.50604       18.71400        3.26428
H         16.29693       21.26505       -3.98174
H         16.20186       19.49437       -3.89205
H         18.39011       20.22548       -3.22042
H         17.04294       21.83507       -1.00057
H         17.95533       22.48697       -2.36967
H         18.77241       21.53582       -1.13273
H         16.87980       19.29040       -0.73687
H         18.58418       19.03246       -1.10079
H         17.34043       18.23926       -2.07368
H         10.54618       17.50841        1.19387
H          9.45345       13.27121        2.15160
H          8.54176       16.36278        0.48925
H          6.43536       18.02728        3.82639
H          8.75342       14.46037        4.31387
H         10.71813       11.34870        0.95730
H          9.65177        7.74492        3.00592
H         10.27108        6.09463        2.89135
H          7.80977        6.33383        2.57255
H          7.90071        8.56788        1.42297
H          8.48249        7.76870       -0.03752
H          6.87358        7.40227        0.58280
H          9.25628        5.29695        0.09169
H          7.55715        5.01746        0.45993
H          8.79363        4.35874        1.51966
H         14.08175       10.81944       -2.68269
H         14.29993        9.15365       -3.25552
H         16.01301        8.72395       -1.59171
H         16.52780       11.27774       -3.18696
H         16.66290        9.62824       -3.80537
H         17.77214       10.19656       -2.55870
H         15.79274       11.66314       -0.79206
H         16.93721       10.48263       -0.15633
H         15.22044       10.30909        0.19216
H         10.94024        4.44148        2.14899
H         11.64743        0.03227        2.48409
H          9.09377        0.23966        2.96807
H          7.96900        3.37592        5.65780
H         11.90491        3.30116        3.96821
H         13.59754       -1.02675        1.08290
H         14.54672       -6.50674        1.37227
H         13.91518       -5.13397        2.29598
H         16.83344       -6.01457        2.47006
H         15.13379       -4.16128        4.19492
H         16.39936       -3.65700        3.07785
H         16.81616       -4.60208        4.50661
H         14.48808       -6.67453        4.31334
H         15.36990       -7.83020        3.31405
H         16.18117       -7.03157        4.65689
H         16.28194        0.22173       -2.94264
H         17.06094       -1.14039       -3.77243
H         19.01079       -1.00121       -2.33267
H         18.25757        1.68674       -3.57322
H         18.95498        0.30967       -4.43270
H         19.89938        1.15497       -3.20742
H         17.90873       -0.07143       -0.27508
H         19.34769        0.83138       -0.73652
H         17.75158        1.48946       -1.09232
H         16.27655       -7.50984        0.85488
H         18.61103      -11.29945        0.39457
H         15.44001       -9.59579       -0.03765
H         13.90033      -10.58715        3.83433
H         17.99947      -11.38202        2.88643
H         20.40407      -11.45506       -1.48374
H         22.95755      -15.00228       -0.64304
H         24.63802      -15.19210       -1.20609
H         23.80116      -16.45106       -3.20002
H         22.86012      -17.56436       -0.51596
H         24.50555      -17.66568       -1.14708
H         23.19391      -18.51703       -1.96216
H         21.08908      -16.20543       -1.81953
H         21.42796      -17.22234       -3.22393
H         21.53697      -15.46784       -3.35663
H         24.99886      -14.15197       -3.70812
H         23.60103       -9.25886       -6.12705
H         22.60037       -8.37246       -4.95704
H         20.57973       -9.63075       -5.85922
H         22.18496       -8.01578       -7.89100
H         21.13134       -7.34561       -6.64116
H         20.44611       -8.30359       -7.95376
H         22.58389      -10.58394       -7.95329
H         20.83186      -10.79336       -8.04619
H         21.75319      -11.60099       -6.77914
