174
d4a2.out	Energy:  -19304.9388246
C         -4.30522       13.41673       -3.24166
S         -3.53240       11.95648       -2.72989
C         -4.46643       11.06795       -3.85358
C         -4.56730        9.72768       -4.31372
S         -3.89345        8.19231       -3.98442
C         -5.23250       13.23048       -4.22179
C         -5.35286       11.87254       -4.57756
C         -6.06637       11.03511       -5.54209
C         -7.00556       11.34352       -6.45819
C         -7.69017       12.61404       -6.60541
C         -8.00748       13.09744       -7.87733
C         -8.67142       14.30315       -8.02103
C         -8.97165       14.84498       -9.39316
F         -8.92595       13.90595      -10.34689
F        -10.18567       15.40906       -9.46528
F         -8.09133       15.79673       -9.75528
C         -9.04842       15.05496       -6.91468
C         -8.76293       14.55450       -5.65332
C         -9.14624       15.32138       -4.41645
F         -9.92982       16.37469       -4.66427
F         -9.79608       14.55409       -3.52644
F         -8.05893       15.79411       -3.77579
C         -8.09635       13.34994       -5.49196
C         -5.50711        9.69559       -5.35003
C         -5.68050        8.41686       -5.87278
C         -4.87659        7.47738       -5.24744
C         -4.78757        6.07644       -5.52395
C         -5.53069        5.44629       -6.51458
C         -5.44346        4.08383       -6.78018
C         -4.60357        3.22902       -6.07689
C         -3.81551        3.82885       -5.05420
C         -3.90812        5.24100       -4.77822
N         -3.11721        5.65575       -3.79976
Se        -2.20749        4.30116       -3.16462
N         -2.95475        3.18001       -4.28398
C         -4.50563        1.82691       -6.34360
S         -3.34447        0.84239       -5.48026
C         -3.85418       -0.53639       -6.35356
C         -3.58785       -1.92458       -6.37383
S         -2.57236       -3.05157       -5.59042
C         -5.24029        1.08702       -7.25653
C         -4.86856       -0.25609       -7.28757
C         -5.26166       -1.50408       -7.94687
C         -6.18927       -1.76828       -8.88848
C         -6.98689       -0.81088       -9.62940
C         -6.45309        0.39976      -10.07346
C         -7.24217        1.29537      -10.77732
C         -6.64788        2.61784      -11.17878
F         -5.37559        2.51024      -11.58610
F         -7.32136        3.22755      -12.15866
F         -6.63281        3.47790      -10.13675
C         -8.56946        1.01363      -11.06856
C         -9.08711       -0.20711      -10.65569
C        -10.50596       -0.56464      -11.01019
F        -11.29557        0.50949      -11.13399
F        -10.57395       -1.22388      -12.18189
F        -11.07921       -1.36210      -10.09763
C         -8.31082       -1.11537       -9.95618
C         -4.43536       -2.53018       -7.31160
C         -4.25220       -3.90782       -7.39704
C         -3.28046       -4.36645       -6.52639
C         -2.83902       -5.70893       -6.31066
C         -1.90981       -6.02190       -5.32644
C         -1.47810       -7.31470       -5.06088
C         -1.93861       -8.41726       -5.77003
C         -2.87534       -8.14696       -6.80826
C         -3.33364       -6.80354       -7.08110
N         -4.20959       -6.72666       -8.07386
Se        -4.51067       -8.32693       -8.72163
N         -3.40384       -9.07440       -7.59163
C         -1.53561       -9.75816       -5.47910
S         -2.16693      -11.10267       -6.40575
C         -1.28863      -12.19895       -5.43084
C         -1.06263      -13.59335       -5.35848
S         -1.53020      -15.02177       -6.17453
C         -0.68161      -10.17743       -4.47077
C         -0.55125      -11.56317       -4.41485
C          0.17002      -12.58074       -3.64666
C          1.01657      -12.47720       -2.60300
C          1.33738      -11.28039       -1.84889
C          0.35989      -10.33919       -1.52082
C          0.69520       -9.20476       -0.79992
C         -0.37356       -8.18101       -0.52785
F         -1.56213       -8.73574       -0.25238
F         -0.07927       -7.36439        0.48815
F         -0.57176       -7.39160       -1.60551
C          1.99745       -8.97624       -0.37594
C          2.95849       -9.93243       -0.67106
C          4.38103       -9.75857       -0.21025
F          4.59984       -8.59497        0.40940
F          4.74881      -10.72760        0.64694
F          5.24979       -9.81959       -1.23463
C          2.63956      -11.07358       -1.38957
C         -0.17885      -13.84292       -4.29781
C          0.08954      -15.19753       -4.13423
C         -0.56576      -15.98254       -5.07058
C         -0.52704      -17.40649       -5.19607
C          0.04634      -18.23769       -4.24131
C          0.08302      -19.62217       -4.36386
C         -0.44026      -20.29859       -5.45947
C         -1.03897      -19.48960       -6.46644
C         -1.09335      -18.05502       -6.33020
N         -1.69114      -17.43559       -7.33698
Se        -2.22050      -18.61378       -8.51946
N         -1.59421      -19.95124       -7.57730
C         -0.40541      -21.72271       -5.59175
S         -1.02549      -22.49865       -7.03352
C         -0.62249      -24.03160       -6.39269
C         -0.64001      -25.38536       -6.80934
S         -1.11440      -26.31300       -8.16499
C          0.07528      -22.64139       -4.67293
C         -0.06504      -23.95952       -5.10399
C          0.26466      -25.31418       -4.65398
C          0.78312      -25.76555       -3.49391
C          1.02093      -24.99859       -2.28706
C          0.13968      -23.99660       -1.87611
C          0.39011      -23.27456       -0.72094
C         -0.53959      -22.14891       -0.35729
F         -1.82064      -22.42414       -0.63754
F         -0.48630      -21.81329        0.93555
F         -0.23747      -21.03059       -1.05244
C          1.50391      -23.53497        0.06548
C          2.35668      -24.55890       -0.32441
C          3.53963      -24.91003        0.53793
F          3.95634      -23.88665        1.29292
F          3.25471      -25.91719        1.38451
F          4.59671      -25.31461       -0.18190
C          2.12089      -25.29005       -1.47683
C         -0.08239      -26.16789       -5.78881
C         -0.04827      -27.52131       -6.11344
C         -0.56574      -27.77596       -7.37211
C         -0.67780      -29.04457       -8.03449
C         -0.26715      -30.23541       -7.46147
C         -0.37997      -31.46915       -8.12047
C         -0.90545      -31.57721       -9.37890
C         -1.34227      -30.40164      -10.01687
C         -1.23076      -29.12820       -9.34651
N         -1.67608      -28.09921      -10.05132
Se        -2.26166      -28.67191      -11.60176
N         -1.87398      -30.33487      -11.23355
H         -4.02101       14.34045       -2.77865
H         -5.77980       14.04372       -4.66187
H         -7.28672       10.57787       -7.16947
H         -7.72239       12.53206       -8.75187
H         -9.56535       15.99394       -7.03618
H         -7.91614       12.96382       -4.50052
H         -6.35506        8.17360       -6.67268
H         -6.20814        6.03074       -7.11613
H         -6.05340        3.68964       -7.57683
H         -6.02703        1.52081       -7.84494
H         -6.38618       -2.80862       -9.11279
H         -5.41268        0.62244       -9.89428
H         -9.18026        1.71880      -11.61012
H         -8.73742       -2.05601       -9.64135
H         -4.78754       -4.57476       -8.04586
H         -1.51053       -5.21979       -4.72302
H         -0.76813       -7.45301       -4.26215
H         -0.17347       -9.48630       -3.82497
H          1.53770      -13.37302       -2.29119
H         -0.66630      -10.51452       -1.80441
H          2.25080       -8.08781        0.18070
H          3.40936      -11.79818       -1.61014
H          0.74079      -15.60368       -3.38246
H          0.47158      -17.80059       -3.35203
H          0.53537      -20.18365       -3.56246
H          0.52280      -22.34436       -3.74294
H          1.06402      -26.80943       -3.44300
H         -0.75561      -23.80609       -2.44718
H          1.69623      -22.96439        0.96049
H          2.80389      -26.07644       -1.76158
H          0.34022      -28.28926       -5.47041
H          0.15733      -30.22692       -6.47018
H         -0.03738      -32.35570       -7.60782
H         -0.99390      -32.52204       -9.88924
