210
d5a3.out	Energy:  -17608.8357304
C         -1.74997       -7.03801        1.81066
S         -3.34935       -7.34497        1.22891
C         -3.75603       -5.63811        1.31122
C         -4.95209       -5.01126        0.99446
O         -6.10443       -5.55642        0.53571
C         -6.18507       -6.93921        0.25721
C         -7.56631       -7.21346       -0.34305
C         -7.69166       -6.53868       -1.70611
C         -7.79681       -8.71699       -0.45271
C         -4.98970       -3.61173        1.17094
C         -6.11105       -2.79223        0.90783
C         -1.51804       -5.73504        2.05704
C         -2.64256       -4.90237        1.78468
C         -2.68020       -3.50611        1.95722
O         -1.52680       -2.95764        2.41435
C         -1.47187       -1.58136        2.73251
C         -0.09253       -1.28937        3.32797
C          0.08225        0.21506        3.50834
C          0.07811       -2.02357        4.65490
C         -3.87364       -2.87418        1.63981
S         -4.27222       -1.16547        1.71506
C         -5.89767       -1.46426        1.14799
C         -6.81395       -0.37369        0.99366
C         -8.14432       -0.53384        0.61358
N         -9.03189        0.43734        0.46565
C         -8.69892        1.70216        0.67317
C         -7.36720        2.03085        1.06201
C         -6.41179        0.96771        1.23057
N         -5.20482        1.37034        1.60285
Se        -5.20512        3.11878        1.75941
N         -6.89670        3.24413        1.30090
C         -9.69838        2.70961        0.50846
S         -9.31918        4.39462        0.72735
C        -10.97782        4.85933        0.37287
C        -11.53318        6.12696        0.33096
O        -10.93800        7.32251        0.54623
C         -9.57881        7.38833        0.93168
C         -9.24090        8.85579        1.20606
C        -10.01786        9.35821        2.41977
C         -7.73814        9.00955        1.41577
C        -12.91219        6.20267        0.02575
C        -13.65753        7.39737       -0.05563
C        -11.01474        2.51375        0.18513
C        -11.76242        3.70470        0.10591
C        -13.14321        3.78161       -0.19514
O        -13.73966        2.59123       -0.42005
C        -15.09969        2.53296       -0.80305
C        -15.45923        1.06402       -1.03802
C        -15.38230        0.28559        0.27202
C        -16.85109        0.96652       -1.65429
C        -13.70153        5.04948       -0.21887
S        -15.37239        5.51574       -0.50184
C        -14.98455        7.20834       -0.33021
C        -16.00980        8.19943       -0.46145
C        -15.74948        9.56632       -0.52972
N        -16.65734       10.52439       -0.62392
C        -17.95047       10.23783       -0.64961
C        -18.37807        8.87877       -0.60193
C        -17.38288        7.84161       -0.52322
N        -17.87463        6.61078       -0.50325
Se       -19.62701        6.69196       -0.57643
N        -19.62852        8.44779       -0.63546
C        -18.88370       11.31630       -0.72809
S        -20.59882       11.04013       -0.61448
C        -20.93042       12.76183       -0.76010
C        -22.15046       13.41671       -0.74322
O        -23.39032       12.89814       -0.59320
C        -23.56659       11.51346       -0.36453
C        -25.05977       11.26385       -0.13832
C        -25.33453        9.76406       -0.10589
C        -25.51687       11.93291        1.15498
C        -22.11569       14.82256       -0.90161
C        -23.24557       15.66664       -0.89530
C        -18.58307       12.64333       -0.88470
C        -19.71429       13.48049       -0.91794
C        -19.68188       14.88428       -1.09448
O        -18.44641       15.40593       -1.24746
C        -18.27921       16.77792       -1.54681
C        -16.79025       17.02575       -1.80003
C        -16.33157       16.26501       -3.04085
C        -16.53609       18.52230       -1.94874
C        -20.90369       15.53680       -1.08496
S        -21.23746       17.25227       -1.26451
C        -22.95218       16.99220       -1.07110
C        -23.85076       18.10623       -1.10111
C        -25.21722       18.00355       -0.84794
N        -26.08288       19.00460       -0.84787
C        -25.69393       20.24267       -1.11342
C        -24.32446       20.50955       -1.40526
C        -23.38707       19.41810       -1.38741
N        -22.13637       19.76601       -1.65544
Se       -22.07150       21.49557       -1.95008
N        -23.79788       21.68977       -1.68945
C        -26.66786       21.28755       -1.08393
S        -26.23683       22.92928       -1.46992
C        -27.88408       23.47492       -1.18525
C        -28.40233       24.75574       -1.28153
O        -27.77650       25.90018       -1.63588
C        -26.42175       25.88211       -2.04293
C        -26.04233       27.30219       -2.47006
C        -24.54021       27.38133       -2.72184
C        -26.82847       27.70859       -3.71339
C        -29.77291       24.90702       -0.96589
C        -30.48080       26.12684       -1.00112
C        -27.99186       21.16346       -0.75644
C        -28.70193       22.37914       -0.79769
C        -30.07301       22.53199       -0.48227
O        -30.70324       21.39100       -0.13188
C        -32.04940       21.41947        0.30072
C        -32.43813       20.00126        0.72503
C        -31.61621       19.56701        1.93517
C        -33.93198       19.94711        1.02837
C        -30.58842       23.81530       -0.57148
S        -32.22527       24.37086       -0.25760
C        -31.79850       26.01647       -0.65168
C        -32.78834       27.05308       -0.58395
C        -32.53362       28.38071       -0.89979
N        -33.42619       29.37231       -0.84804
C        -34.65540       29.14078       -0.47826
C        -35.08241       27.84337       -0.12308
C        -34.12219       26.77035       -0.17833
N        -34.60169       25.58471        0.16945
Se       -36.29621       25.75766        0.58740
N        -36.29844       27.47711        0.26820
H         -1.08404       -7.86993        1.92876
H         -6.05451       -7.51912        1.17976
H         -5.40569       -7.23351       -0.45629
H         -8.31004       -6.78129        0.33401
H         -6.99011       -6.97905       -2.41182
H         -7.47582       -5.47713       -1.61973
H         -8.69820       -6.65853       -2.09912
H         -7.04223       -9.16963       -1.09231
H         -8.77569       -8.91599       -0.88122
H         -7.74608       -9.18941        0.52535
H         -7.03722       -3.20106        0.54983
H         -0.58776       -5.33978        2.42019
H         -2.25159       -1.32633        3.46032
H         -1.62400       -0.97714        1.82967
H          0.65732       -1.65979        2.62159
H         -0.67873        0.60524        4.18057
H         -0.00494        0.73194        2.55577
H          1.05995        0.43199        3.93107
H         -0.63508       -1.65109        5.38741
H          1.08256       -1.87697        5.04454
H         -0.09058       -3.08827        4.51783
H         -8.53411       -1.52245        0.41612
H         -8.94000        6.99810        0.13001
H         -9.40842        6.79275        1.83616
H         -9.54573        9.43451        0.32823
H         -9.70608        8.82440        3.31516
H        -11.08308        9.19920        2.27508
H         -9.84188       10.42029        2.57165
H         -7.41169        8.40840        2.26143
H         -7.49123       10.04910        1.61560
H         -7.18915        8.68746        0.53430
H        -13.20598        8.35856        0.10365
H        -11.42772        1.53786        0.01314
H        -15.25619        3.10928       -1.72318
H        -15.73856        2.95077       -0.01551
H        -14.72356        0.65169       -1.73587
H        -16.12494        0.65594        0.97578
H        -14.39675        0.39735        0.71560
H        -15.56806       -0.77131        0.09755
H        -17.59004        1.40972       -0.99039
H        -17.11637       -0.07446       -1.81990
H        -16.89034        1.48818       -2.60755
H        -14.72905        9.92251       -0.51323
H        -22.99849       11.19653        0.51796
H        -23.21585       10.94019       -1.23129
H        -25.60005       11.71329       -0.97767
H        -24.77310        9.29469        0.69883
H        -25.04464        9.29683       -1.04383
H        -26.39303        9.57986        0.05896
H        -25.02350       11.47706        2.01095
H        -26.59178       11.82726        1.27905
H        -25.27100       12.99127        1.13682
H        -24.23971       15.28080       -0.76891
H        -17.57431       12.99970       -0.97334
H        -18.62487       17.39349       -0.70714
H        -18.85735       17.04695       -2.43896
H        -16.24006       16.64796       -0.93255
H        -16.84284       16.64008       -3.92514
H        -16.55303       15.20659       -2.93418
H        -15.26052       16.38352       -3.18459
H        -17.10542       18.92058       -2.78572
H        -15.48065       18.70778       -2.13048
H        -16.83073       19.05680       -1.04889
H        -25.65301       17.04154       -0.61800
H        -26.28510       25.19130       -2.88327
H        -25.78268       25.55579       -1.21357
H        -26.30823       27.97587       -1.64919
H        -24.25254       26.68899       -3.50988
H        -23.98294       27.12842       -1.82318
H        -24.26350       28.38681       -3.02821
H        -26.55375       27.07867       -4.55694
H        -26.62100       28.74368       -3.97307
H        -27.89501       27.60190       -3.53452
H        -30.00395       27.04858       -1.27698
H        -28.43508       20.22243       -0.49099
H        -32.70147       21.75892       -0.51350
H        -32.16267       22.10517        1.14911
H        -32.21272       19.33251       -0.11159
H        -31.84021       20.19983        2.79155
H        -30.55510       19.64399        1.71442
H        -31.84307       18.53684        2.19810
H        -34.17765       20.62941        1.83918
H        -34.21867       18.94168        1.32546
H        -34.51538       20.22862        0.15507
H        -31.54823       28.68704       -1.21931
H        -35.33796       29.97742       -0.45298
