254
d5a4.out	Energy:  -10584.5442642
C          3.12108        3.48323       -3.86139
S          2.78258        5.02579       -3.15050
C          1.09863        4.60469       -3.00937
C          0.12219        5.43164       -2.46245
O          0.59859        6.62018       -2.02097
C         -0.21926        7.61901       -1.45226
C          0.68117        8.80434       -1.09102
C          1.28928        9.41072       -2.35209
C         -0.12216        9.84161       -0.31217
C         -1.19033        4.91852       -2.44586
C         -2.37884        5.52715       -1.97616
C          2.03280        2.69427       -3.98443
C          0.84588        3.31538       -3.50108
C         -0.46014        2.78694       -3.47208
O         -0.57520        1.53526       -3.99922
C         -1.61194        0.67357       -3.58041
C         -1.52665        0.31908       -2.09029
C         -2.78983       -0.41585       -1.65596
C         -0.27445       -0.51010       -1.81920
C         -1.45307        3.60789       -2.96070
S         -3.17201        3.22640       -2.85170
C         -3.50766        4.76572       -2.11591
C         -4.83273        5.11550       -1.73032
C         -5.17932        6.34570       -1.13106
N         -4.35094        7.35360       -0.84866
S         -5.18650        8.55202       -0.17397
N         -6.63846        7.86486       -0.19979
C         -6.54300        6.65105       -0.74354
C         -5.89590        4.21217       -1.93647
N         -5.62591        3.03270       -2.52653
C         -6.58302        2.16828       -2.73589
C         -6.23025        0.88725       -3.41332
C         -7.91864        2.45700       -2.32578
C         -9.03621        1.49061       -2.52438
N         -8.20011        3.59747       -1.75593
C         -7.23528        4.50938       -1.54685
C         -7.59688        5.73152       -0.94057
C         -8.94617        5.97445       -0.56307
S        -10.17902        4.76548       -0.83619
C        -11.38049        5.81038       -0.11276
C        -12.71703        5.48002        0.04853
O        -13.05852        4.28698       -0.50355
C        -14.19152        3.54054       -0.11387
C        -14.15982        3.12073        1.36147
C        -15.48962        2.48119        1.74809
C        -12.99015        2.16946        1.60126
C        -13.52877        6.44068        0.70100
C        -14.89383        6.36260        1.04087
C         -9.44913        7.10638        0.03830
C        -10.82578        7.03454        0.30389
C        -11.63753        8.01606        0.92876
O        -10.97419        9.14437        1.25926
C        -11.63722       10.24737        1.83705
C        -10.61421       11.37560        2.01485
C         -9.49465       10.93161        2.95239
C        -10.05194       11.79875        0.66043
C        -12.96606        7.68976        1.12302
S        -14.19283        8.69861        1.90579
C        -15.39206        7.46403        1.69239
C        -16.71160        7.63354        2.18982
C        -17.71664        6.64780        2.11920
N        -17.62928        5.43082        1.57831
S        -19.03933        4.66774        1.75955
N        -19.83062        5.83675        2.53154
C        -19.02420        6.88664        2.68409
C        -17.07506        8.83996        2.83023
N        -16.12793        9.79086        2.91104
C        -16.38112       10.93169        3.49533
C        -15.28841       11.94519        3.54850
C        -17.66853       11.16787        4.05457
C        -18.00131       12.45231        4.73953
N        -18.60869       10.26183        3.98840
C        -18.37051        9.08073        3.38512
C        -19.38462        8.09276        3.32109
C        -20.69017        8.24767        3.86492
S        -21.80162        6.89963        3.84452
C        -23.04481        7.83800        4.66329
C        -24.31453        7.45409        5.05797
O        -24.92313        6.25251        4.94124
C        -24.36565        5.22414        4.14987
C        -24.53756        5.47483        2.64560
C        -23.69533        4.47854        1.85629
C        -26.01359        5.38762        2.26788
C        -25.09560        8.43947        5.71679
C        -26.40238        8.23906        6.19256
C        -21.25316        9.35073        4.45864
C        -22.56700        9.15200        4.91330
C        -23.34963       10.13324        5.57112
O        -22.74624       11.34326        5.69700
C        -23.14418       12.22528        6.72480
C        -22.79711       11.68479        8.11826
C        -21.28168       11.62014        8.28897
C        -23.44681       12.54796        9.19353
C        -24.61966        9.75354        5.96595
S        -25.86295       10.70229        6.78642
C        -26.95549        9.34377        6.79330
C        -28.24204        9.45869        7.38243
C        -29.17936        8.40683        7.43160
N        -29.04407        7.17567        6.93660
S        -30.38082        6.33427        7.24084
N        -31.20067        7.47835        8.01477
C        -30.46167        8.58631        8.07134
C        -28.65434       10.67499        7.97327
N        -27.79129       11.70458        7.90541
C        -28.09596       12.86267        8.42631
C        -27.11054       13.97399        8.29316
C        -29.34391       13.03098        9.09092
C        -29.72216       14.32931        9.72433
N        -30.20381       12.05051        9.16579
C        -29.92054       10.85148        8.61716
C        -30.86156        9.79298        8.68367
C        -32.13474        9.88486        9.31782
S        -33.23153        8.51573        9.29988
C        -34.40526        9.41401       10.22531
C        -35.63418        8.93678       10.64718
O        -35.97882        7.68484       10.25235
C        -36.64402        6.80988       11.14831
C        -36.02061        5.41497       11.01807
C        -34.55982        5.44291       11.45820
C        -36.82576        4.41237       11.83897
C        -36.43314        9.82539       11.40172
C        -37.73302        9.60363       11.90083
C        -32.66587       10.95541        9.99924
C        -33.94636       10.71409       10.52259
C        -34.73544       11.60313       11.29460
O        -34.15689       12.80576       11.50414
C        -34.80661       13.81652       12.24370
C        -33.88315       15.04056       12.27114
C        -32.56161       14.68905       12.94981
C        -33.65021       15.55410       10.85239
C        -35.96378       11.13591       11.72453
S        -37.17170       12.01072       12.67495
C        -38.26138       10.65800       12.59988
C        -39.54008       10.72121       13.22528
C        -40.46982        9.66125       13.22348
N        -40.32963        8.45641       12.66590
S        -41.66302        7.59792       12.93661
N        -42.49180        8.68623       13.76907
C        -41.75536        9.80003       13.88188
C        -39.93623       11.89213       13.90248
N        -39.06841       12.92074       13.93168
C        -39.38664       14.02638       14.54556
C        -38.38580       15.13190       14.54711
C        -40.66017       14.15128       15.18916
C        -41.04457       15.40900       15.89522
N        -41.52343       13.17599       15.18079
C        -41.20918       12.01685       14.54859
C        -42.12243       10.96937       14.53737
H          4.13099        3.26128       -4.14593
H         -0.70807        7.23888       -0.54603
H         -0.98371        7.94294       -2.17003
H          1.49084        8.42325       -0.46076
H          1.97900       10.21042       -2.09407
H          0.50880        9.81942       -2.99095
H          1.83106        8.64881       -2.90600
H          0.51094       10.68422       -0.04665
H         -0.52676        9.41321        0.60199
H         -0.95035       10.20950       -0.91432
H         -2.45324        6.50130       -1.53743
H          2.04016        1.70540       -4.40426
H         -1.46931       -0.22577       -4.18707
H         -2.59370        1.09773       -3.81595
H         -1.45496        1.25435       -1.52515
H         -3.65734        0.22998       -1.76553
H         -2.93784       -1.30938       -2.25905
H         -2.71106       -0.71322       -0.61320
H         -0.15464       -0.68396       -0.75243
H          0.60723        0.01068       -2.18561
H         -0.34144       -1.47317       -2.32154
H         -5.18063        0.90584       -3.69120
H         -6.83874        0.75091       -4.30572
H         -6.41374        0.04356       -2.74913
H         -8.82319        0.55291       -2.01330
H         -9.16770        1.27449       -3.58358
H         -9.94975        1.92332       -2.12733
H        -14.14037        2.64974       -0.74809
H        -15.11798        4.07192       -0.35711
H        -14.00901        4.01684        1.97266
H        -15.69396        1.61781        1.11832
H        -15.45951        2.15215        2.78383
H        -16.30478        3.19275        1.63768
H        -13.14725        1.23432        1.06734
H        -12.88821        1.94959        2.66131
H        -12.06323        2.61597        1.24815
H        -15.54372        5.53383        0.84497
H         -8.83664        7.95370        0.28243
H        -12.05876        9.96888        2.81120
H        -12.45339       10.58254        1.18488
H        -11.14536       12.22230        2.46430
H         -9.89530       10.66052        3.92664
H         -8.77213       11.73293        3.08624
H         -8.98509       10.06786        2.53442
H         -9.33249       12.60451        0.78375
H         -9.55491       10.95594        0.18802
H        -10.84865       12.14375        0.00510
H        -14.40462       11.54174        3.06294
H        -15.05295       12.19512        4.58197
H        -15.59511       12.85966        3.04283
H        -17.87274       13.29063        4.05638
H        -17.34238       12.60863        5.59251
H        -19.03158       12.42310        5.08245
H        -24.92410        4.32950        4.44115
H        -23.31031        5.06997        4.39542
H        -24.18045        6.48629        2.42706
H        -23.98430        3.45863        2.10094
H        -22.64075        4.60921        2.08707
H        -23.83731        4.63034        0.78935
H        -26.38228        4.37392        2.41156
H        -26.15804        5.66319        1.22599
H        -26.60052        6.05986        2.88942
H        -26.92634        7.30600        6.10259
H        -20.72848       10.28095        4.55926
H        -24.21320       12.45057        6.65642
H        -22.58115       13.14224        6.52693
H        -23.20175       10.66982        8.19289
H        -20.85672       12.62220        8.28007
H        -20.83632       11.04686        7.47907
H        -21.02348       11.14401        9.23185
H        -23.13551       13.58555        9.09052
H        -23.15687       12.19777       10.18106
H        -24.52947       12.49581        9.11364
H        -26.26993       13.63699        7.69427
H        -26.75424       14.28549        9.27439
H        -27.57394       14.83531        7.81485
H        -29.76251       15.11870        8.97503
H        -28.98591       14.61407       10.47445
H        -30.69617       14.23515       10.19486
H        -37.70924        6.75956       10.88652
H        -36.54702        7.16624       12.17961
H        -36.06126        5.13583        9.96081
H        -34.48355        5.72230       12.50773
H        -34.00345        6.16219       10.86231
H        -34.10678        4.46333       11.32778
H        -37.86034        4.37944       11.50523
H        -36.81301        4.68663       12.89193
H        -36.40008        3.41736       11.73840
H        -38.30490        8.70866       11.74820
H        -32.13660       11.88063       10.11706
H        -35.00461       13.47125       13.26624
H        -35.76144       14.07918       11.77190
H        -34.39047       15.81678       12.85463
H        -31.89660       15.54939       12.95616
H        -32.07797       13.87422       12.41796
H        -32.73123       14.37602       13.97749
H        -33.21748       14.76685       10.24100
H        -32.97368       16.40538       10.86174
H        -34.58905       15.86405       10.39919
H        -37.50018       14.80958       14.00688
H        -38.11285       15.39592       15.56778
H        -38.79923       16.01909       14.06959
H        -40.34261       15.62192       16.70007
H        -42.04273       15.29668       16.30796
H        -41.03139       16.25094       15.20476
H        -43.07804       11.06569       15.02304
