218
d5a7.out	Energy:  -11553.1050208
C        -38.36406        5.40177       -2.41279
S        -37.91838        6.67459       -1.32736
C        -36.24006        6.23946       -1.48501
C        -35.18826        6.87929       -0.84175
O        -35.51925        7.94047       -0.06707
C        -34.78291        8.25047        1.10328
C        -35.76551        8.75196        2.16764
C        -36.72324        7.63478        2.57177
C        -34.99469        9.28079        3.37314
C        -33.89770        6.38113       -1.10965
C        -32.66042        6.88844       -0.65188
C        -37.31302        4.68726       -2.86884
C        -36.06904        5.14645       -2.35091
C        -34.78368        4.61866       -2.60057
O        -34.78303        3.53148       -3.41311
C        -33.58918        3.02007       -3.96780
C        -33.01983        3.90660       -5.08375
C        -31.60911        3.44878       -5.43826
C        -33.94213        3.87583       -6.29920
C        -33.72322        5.24811       -1.96579
S        -32.01458        4.85091       -2.10738
C        -31.56641        6.19330       -1.09590
C        -30.19726        6.45649       -0.81726
C        -29.17121        5.70443       -1.42281
N        -29.37512        4.70926       -2.28712
S        -27.95758        4.12144       -2.76242
N        -27.00459        5.09247       -1.89756
C        -27.76021        5.93353       -1.18677
C        -29.74896        7.46425        0.06095
N        -30.50567        8.31025        0.76493
S        -29.55451        9.27688        1.63310
N        -28.13468        8.68168        1.16882
C        -28.33893        7.68792        0.30436
C        -27.31158        6.93935       -0.30468
C        -25.94594        7.21277       -0.03018
S        -25.49625        8.49577        1.04969
C        -23.78338        8.15883        0.80174
C        -22.72689        8.83138        1.38592
O        -22.74209        9.86449        2.25231
C        -23.94889       10.35453        2.80062
C        -23.58949       11.44773        3.81040
C        -24.86105       12.12623        4.30944
C        -22.79015       10.85682        4.96821
C        -21.42377        8.39570        1.02896
C        -20.20037        8.91699        1.47367
C        -24.84997        6.56268       -0.54463
C        -23.60815        7.06364       -0.10929
C        -22.30234        6.63401       -0.45607
O        -21.90894        5.59797       -1.23561
C        -22.72951        4.98708       -2.20936
C        -23.15067        5.94381       -3.33271
C        -21.92209        6.37705       -4.12851
C        -24.18580        5.26896       -4.22746
C        -21.25213        7.33001        0.12373
S        -19.56464        6.99835       -0.16936
C        -19.10545        8.28076        0.92853
C        -17.73568        8.56799        1.16809
C        -17.27791        9.55372        2.07222
N        -18.04774       10.33431        2.83216
S        -17.12053       11.30431        3.71275
N        -15.68847       10.79715        3.18685
C        -15.86613        9.82994        2.28375
C        -16.70945        7.87175        0.49958
N        -16.89326        6.89622       -0.39122
S        -15.46294        6.38449       -0.91551
N        -14.53317        7.36732       -0.04825
C        -15.30680        8.15108        0.70438
C        -14.84306        9.13791        1.59642
C        -13.45433        9.39012        1.76322
S        -12.26787        8.48535        0.85903
C        -10.98295        9.39643        1.61194
C         -9.65015        9.20582        1.27946
O         -9.43848        8.18151        0.41636
C         -8.35432        8.11481       -0.48811
C         -8.52323        9.01588       -1.72085
C         -8.42771       10.49901       -1.37318
C         -7.45617        8.64525       -2.74849
C         -8.70924       10.03476        1.94162
C         -7.30635       10.11430        1.85897
C        -12.88028       10.32257        2.60012
C        -11.47434       10.34507        2.54738
C        -10.53397       11.15912        3.21929
O        -10.78082       12.13737        4.11838
C        -11.90435       12.07374        4.97674
C        -11.52947       12.74469        6.30551
C        -10.37570       11.99655        6.96852
C        -11.16010       14.20648        6.07055
C         -9.20299       10.97503        2.88772
S         -7.92973       11.89946        3.64379
C         -6.74282       11.06195        2.68402
C         -5.36163       11.38200        2.77713
C         -4.87725       12.27901        3.75066
N         -5.63970       12.89602        4.65400
S         -4.71268       13.82158        5.58167
N         -3.29629       13.49505        4.89574
C         -3.47940       12.63336        3.89218
C         -4.37243       10.86834        1.91133
N         -4.56034       10.02995        0.88762
S         -3.14836        9.74486        0.16806
N         -2.22345       10.66039        1.10513
C         -2.97816       11.24135        2.03796
C         -2.48804       12.11223        3.03291
C         -1.10587       12.42631        3.12926
S          0.02455       11.83082        1.93302
C          1.33551       12.64798        2.74173
C          2.64831       12.68205        2.31634
O          3.02204       11.98196        1.20464
C          3.48379       12.71907        0.08182
C          2.34128       13.37252       -0.71321
C          1.93306       14.71384       -0.10694
C          2.76820       13.56238       -2.16714
C          3.55958       13.39607        3.12380
C          4.95127       13.49533        2.92990
C         -0.49040       13.19064        4.09511
C          0.89459       13.32812        3.90165
C          1.79718       14.07608        4.70081
O          1.23578       14.62017        5.80329
C          1.74065       15.78625        6.42120
C          1.22298       17.07610        5.76134
C          1.74925       17.23197        4.33704
C         -0.30361       17.10289        5.77948
C          3.12315       14.08791        4.29195
S          4.49291       14.85845        5.08243
C          5.59628       14.24388        3.88030
C          6.98717       14.53725        3.96595
C          7.94284       14.10234        3.02527
N          7.71094       13.37976        1.92557
S          9.10063       13.12460        1.16272
N         10.07811       13.90519        2.15853
C          9.35669       14.42011        3.16557
C          7.50977       15.30273        5.02438
N          6.79495       15.82837        6.02187
S          7.78408       16.61805        7.01044
N          9.16417       16.34979        6.24640
C          8.92266       15.61108        5.15202
C          9.85517       15.16903        4.22412
H        -39.40236        5.26694       -2.64451
H        -34.05139        9.03819        0.88012
H        -34.25467        7.36461        1.47215
H        -36.34537        9.56548        1.72097
H        -36.17648        6.81116        3.02751
H        -37.25316        7.26226        1.69857
H        -37.45397        8.00220        3.28775
H        -34.39097        8.49013        3.81388
H        -35.68508        9.64725        4.12834
H        -34.33535       10.09616        3.08462
H        -32.53770        7.75938       -0.03840
H        -37.38811        3.85777       -3.54716
H        -33.88374        2.05079       -4.38156
H        -32.83784        2.84768       -3.19088
H        -32.97171        4.93465       -4.71055
H        -31.61539        2.40728       -5.75250
H        -30.95112        3.55159       -4.57860
H        -31.21262        4.05175       -6.25120
H        -33.59829        4.57555       -7.05714
H        -33.96361        2.87844       -6.73383
H        -34.95421        4.14891       -6.00938
H        -24.49611        9.54774        3.30284
H        -24.58564       10.77056        2.01044
H        -22.96517       12.18240        3.29225
H        -25.50632       11.40309        4.80332
H        -25.41270       12.57012        3.48427
H        -24.61428       12.91000        5.02090
H        -21.90462       10.35220        4.59175
H        -23.39445       10.13739        5.51707
H        -22.47919       11.64126        5.65372
H        -20.11341        9.73327        2.16547
H        -24.99904        5.74708       -1.22269
H        -23.59809        4.50638       -1.74670
H        -22.09050        4.19996       -2.62150
H        -23.60201        6.83312       -2.88015
H        -21.49441        5.52754       -4.65689
H        -21.16493        6.78349       -3.46184
H        -22.18883        7.13886       -4.85711
H        -23.78371        4.34920       -4.64684
H        -24.45936        5.92945       -5.04641
H        -25.08530        5.03001       -3.66444
H         -8.36160        7.06883       -0.81125
H         -7.39776        8.31408       -0.00217
H         -9.51489        8.81654       -2.14146
H         -9.21788       10.79303       -0.68631
H         -8.52724       11.09702       -2.27650
H         -7.46688       10.72473       -0.91503
H         -7.53432        7.59784       -3.02992
H         -6.46328        8.82045       -2.33914
H         -7.56971        9.25062       -3.64409
H         -6.67047        9.51527        1.23689
H        -13.49423       10.96493        3.20112
H        -12.19133       11.03117        5.15309
H        -12.74998       12.60599        4.52102
H        -12.41346       12.69289        6.95124
H         -9.49981       12.02362        6.32478
H        -10.64379       10.95786        7.15108
H        -10.12227       12.45916        7.91895
H        -10.30950       14.26379        5.39686
H        -10.89648       14.68607        7.00986
H        -11.99344       14.74729        5.62753
H          3.98615       11.97110       -0.53697
H          4.21182       13.48209        0.37867
H          1.48542       12.69019       -0.67661
H          2.77136       15.40850       -0.12528
H          1.60558       14.59796        0.92298
H          1.11472       15.14883       -0.67626
H          3.64998       14.19772       -2.22234
H          1.97007       14.03358       -2.73538
H          3.00129       12.60693       -2.63066
H          5.48777       13.00763        2.13713
H         -1.02790       13.63129        4.91378
H          2.83283       15.79277        6.45336
H          1.36364       15.73050        7.44709
H          1.60453       17.90532        6.36747
H          1.35307       16.44965        3.69276
H          2.83559       17.18097        4.32074
H          1.44324       18.19276        3.92956
H         -0.69976       16.25590        5.22487
H         -0.67168       18.01887        5.32385
H         -0.67574       17.04985        6.79989
H         10.90304       15.39315        4.31591
