198
d5a8.out	Energy:   -8785.0964798
C         -6.90035       24.57564       16.81672
S         -7.35636       22.97780       16.33316
C         -7.24841       23.44013       14.65760
C         -7.47423       22.57853       13.59302
O         -7.77640       21.27203       13.85632
C         -9.01029       20.76386       13.37264
C        -10.19475       21.11888       14.28565
C        -10.68405       22.54435       14.03755
C        -11.33111       20.12420       14.06038
C         -7.29019       23.10222       12.30371
C         -7.36502       22.45485       11.04255
C         -6.69244       25.41944       15.78504
C         -6.89526       24.80212       14.51384
C         -6.79633       25.34652       13.22539
O         -6.46971       26.65167       12.96972
C         -7.39706       27.64537       13.37768
C         -8.62673       27.73799       12.45896
C         -9.68982       26.70715       12.83490
C         -9.21518       29.14552       12.52749
C         -6.97353       24.47566       12.16129
S         -6.81546       24.93539       10.48978
C         -7.13323       23.28548        9.98547
C         -7.11457       22.94533        8.60245
C         -6.75888       23.73803        7.53699
C         -6.83388       23.08043        6.30632
C         -7.25820       21.77643        6.40848
S         -7.56562       21.34988        8.06805
C         -7.44703       20.82740        5.36454
S         -6.96225       21.22302        3.72303
C         -7.48563       19.65852        3.16605
C         -7.39090       19.19595        1.86381
O         -6.81586       19.99007        0.91427
C         -7.55576       20.27805       -0.26306
C         -8.30811       21.61738       -0.18265
C         -9.46045       21.55109        0.81689
C         -7.34798       22.74962        0.16816
C         -7.82271       17.87882        1.63472
C         -7.72162       17.14229        0.42544
C         -7.97884       19.57438        5.45513
C         -8.01650       18.88542        4.21865
C         -8.52380       17.59168        3.98081
O         -9.08703       16.99873        5.06507
C         -9.18310       15.59286        5.15642
C         -7.81416       14.90628        5.24540
C         -7.08373       15.35221        6.50895
C         -7.99405       13.39271        5.21273
C         -8.41913       17.11719        2.68020
S         -8.92508       15.55059        2.06895
C         -8.25552       15.89115        0.48769
C         -8.31239       14.90190       -0.53342
C         -8.95662       13.68743       -0.49892
C         -8.80930       12.94828       -1.67484
C         -8.04073       13.57952       -2.62475
S         -7.50092       15.13430       -2.05757
C         -7.66219       13.09288       -3.90781
S         -8.34009       11.58405       -4.50234
C         -7.39211       11.70866       -5.95540
C         -7.41063       10.77957       -6.98458
O         -8.30748        9.75817       -6.84138
C         -7.95482        8.42200       -7.14925
C         -6.60931        7.97971       -6.56433
C         -6.65761        8.01238       -5.03921
C         -6.26261        6.58249       -7.06992
C         -6.55710       11.03738       -8.07169
C         -6.38259       10.27223       -9.25493
C         -6.77826       13.64357       -4.78963
C         -6.59875       12.87097       -5.96266
C         -5.72292       13.12792       -7.03646
O         -4.96637       14.24636       -6.89093
C         -4.39308       14.89416       -8.00735
C         -5.43985       15.48793       -8.95854
C         -6.24241       16.57206       -8.24472
C         -4.75160       16.03425      -10.20449
C         -5.70935       12.18755       -8.05777
S         -4.69584       12.21198       -9.48941
C         -5.43309       10.75437      -10.10565
C         -5.00396       10.20336      -11.34778
C         -5.51799        9.12062      -12.02721
C         -4.83704        8.83461      -13.21163
C         -3.78632        9.69098      -13.45887
S         -3.64969       10.88061      -12.20064
C         -2.87048        9.67132      -14.54959
S         -1.55797       10.83014      -14.61054
C         -0.93954       10.14029      -16.09768
C          0.17959       10.51288      -16.82785
O          1.05677       11.52430      -16.58961
C          1.22264       12.03602      -15.28395
C          1.84327       11.01935      -14.31720
C          3.24946       10.64656      -14.77845
C          1.85445       11.59269      -12.90456
C          0.43042        9.77800      -18.00246
C          1.52560        9.99395      -18.87623
C         -2.84282        8.82849      -15.62064
C         -1.77024        9.06974      -16.51371
C         -1.52316        8.34162      -17.69564
O         -2.41871        7.35738      -17.95012
C         -2.33892        6.60762      -19.14451
C         -3.53806        5.65401      -19.19433
C         -3.49937        4.68974      -18.01186
C         -4.84392        6.44416      -19.21379
C         -0.40907        8.71857      -18.42914
S          0.21038        8.02886      -19.92096
C          1.55775        9.14966      -19.94177
C          2.51584        9.08902      -20.99681
C          2.54276        8.23994      -22.07288
C          3.64293        8.46024      -22.92173
C          4.44412        9.46960      -22.49066
S          3.87308       10.17927      -21.03349
H         -6.80797       24.78747       17.86407
H         -8.86877       19.67978       13.35584
H         -9.21310       21.11294       12.35477
H         -9.84633       21.03761       15.32080
H        -11.52070       22.77294       14.69376
H         -9.89733       23.27007       14.22744
H        -11.01527       22.65805       13.00653
H        -11.65861       20.15276       13.02307
H        -12.17868       20.37093       14.69477
H        -11.01126       19.11155       14.29370
H         -7.53839       21.40085       10.91527
H         -6.37214       26.43862       15.90634
H         -6.82584       28.57601       13.32692
H         -7.72163       27.48255       14.41180
H         -8.28653       27.54242       11.43633
H         -9.30292       25.69392       12.76144
H        -10.54553       26.79193       12.16888
H        -10.03223       26.87080       13.85549
H         -9.51198       29.38213       13.54740
H        -10.09255       29.21800       11.88963
H         -8.48960       29.88527       12.19816
H         -6.44891       24.76073        7.65841
H         -6.59013       23.53407        5.36206
H         -8.27170       19.47983       -0.48223
H         -6.81645       20.32569       -1.06924
H         -8.72353       21.79336       -1.18221
H        -10.11332       20.70708        0.60087
H        -10.05122       22.46282        0.76820
H         -9.08269       21.44723        1.83013
H         -6.57186       22.84045       -0.58803
H         -6.87400       22.54812        1.12563
H         -7.88258       23.69385        0.23434
H         -7.23178       17.50980       -0.45868
H         -8.34039       19.15015        6.37433
H         -9.76555       15.18117        4.32431
H         -9.74238       15.42700        6.08170
H         -7.22205       15.20987        4.37515
H         -7.62351       15.02287        7.39444
H         -7.00360       16.43644        6.53687
H         -6.08180       14.93100        6.53752
H         -8.47705       13.08528        4.28814
H         -8.60627       13.06474        6.04999
H         -7.02821       12.89838        5.27777
H         -9.51682       13.35564        0.35747
H         -9.23907       11.97581       -1.83648
H         -7.97317        8.25113       -8.23268
H         -8.76420        7.83457       -6.70541
H         -5.83892        8.67966       -6.90806
H         -6.97262        8.99143       -4.68692
H         -5.67686        7.79466       -4.62323
H         -7.36399        7.27240       -4.66877
H         -6.17752        6.57117       -8.15450
H         -5.31438        6.25709       -6.64977
H         -7.03141        5.87094       -6.77619
H         -6.94750        9.38940       -9.48282
H         -6.25323       14.56368       -4.60697
H         -3.71652       14.22455       -8.55024
H         -3.79627       15.69741       -7.56554
H         -6.12544       14.68733       -9.25689
H         -6.68372       16.17672       -7.33262
H         -7.04132       16.93795       -8.88511
H         -5.59821       17.40872       -7.98221
H         -4.03714       16.80891       -9.93465
H         -5.48590       16.46365      -10.88118
H         -4.22236       15.24126      -10.72778
H         -6.36394        8.55620      -11.67886
H         -5.09813        8.02418      -13.86734
H          0.27472       12.41450      -14.88472
H          1.90114       12.88352      -15.41708
H          1.22313       10.11633      -14.32603
H          3.22723       10.28499      -15.80400
H          3.90524       11.51355      -14.73236
H          3.66329        9.86548      -14.14523
H          0.84190       11.81012      -12.57261
H          2.43541       12.51182      -12.87261
H          2.29846       10.88049      -12.21380
H          2.25916       10.76061      -18.70490
H         -3.55780        8.04490      -15.78607
H         -1.40552        6.03096      -19.16919
H         -2.36225        7.27633      -20.01394
H         -3.45163        5.08276      -20.12496
H         -2.58582        4.09979      -18.02844
H         -4.34898        4.01234      -18.04717
H         -3.53405        5.24583      -17.07897
H         -4.92089        7.05599      -18.31899
H         -5.69517        5.76887      -19.24970
H         -4.88393        7.09697      -20.08284
H          1.79204        7.48742      -22.23768
H          3.83034        7.89201      -23.81513
H          5.34153        9.84681      -22.93898
