174
d6a11.out	Energy:   -8906.7449898
C         23.87864      -11.01109        2.06546
S         23.63858       -9.31190        1.82934
C         22.08764       -9.43363        2.54956
C         20.97514       -8.59657        2.80239
S         20.52307       -6.95393        2.62073
C         22.82874      -11.63364        2.66897
C         21.78798      -10.73451        2.97071
C         20.43488      -10.75148        3.52150
C         19.70229      -11.75747        4.03716
C         20.15109      -13.10775        4.32943
C         21.39449      -13.34938        4.91524
C         21.79239      -14.63961        5.20906
C         20.96055      -15.70971        4.92123
C         19.71535      -15.48042        4.35780
C         19.30723      -14.19104        4.07745
C         19.95726       -9.37603        3.36825
C         18.81143       -8.64345        3.66022
C         18.94564       -7.30729        3.31507
C         17.98009       -6.29394        3.47633
C         16.68929       -6.41504        4.00620
N         16.11984       -7.55081        4.45197
C         14.89375       -7.47213        4.90471
C         14.26610       -8.73711        5.39138
C         14.17808       -6.23424        4.93419
C         12.77728       -6.16233        5.44662
N         14.71631       -5.11732        4.51278
C         15.97392       -5.17603        4.03898
C         16.71235       -4.09841        3.53036
S         18.27885       -4.64574        3.01945
C         16.30552       -2.75678        3.42075
S         17.34445       -1.54096        2.68767
C         16.14249       -0.34838        2.96116
C         15.93161        1.00885        2.67101
S         16.75296        2.31070        1.91430
C         15.09728       -2.22665        3.85316
C         15.00279       -0.86166        3.61655
C         14.02655        0.21708        3.77039
C         12.79853        0.21083        4.32308
C         12.18074       -0.88007        5.05893
C         12.90033       -1.62592        5.99332
C         12.28914       -2.64477        6.69835
C         10.95252       -2.94008        6.48131
C         10.22282       -2.19357        5.56991
C         10.82624       -1.16316        4.87540
C         14.65206        1.37442        3.13274
C         14.34498        2.70309        2.87998
C         15.37282        3.36180        2.21518
C         15.37561        4.69856        1.78287
C         14.36839        5.66028        1.95144
N         13.19698        5.47469        2.58612
C         12.37120        6.49111        2.63587
C         11.07058        6.27613        3.33794
C         12.69207        7.75233        2.04568
C         11.73978        8.90102        2.10602
N         13.82936        7.95398        1.42726
C         14.68982        6.92283        1.36190
C         15.94319        6.93654        0.73107
S         16.70377        5.38384        0.89553
C         16.53368        7.99887        0.02661
S         18.08666        7.81506       -0.78059
C         17.97977        9.42692       -1.35697
C         18.69381       10.27551       -2.21831
S         20.12887       10.24905       -3.16371
C         15.99614        9.26814       -0.14854
C         16.81319       10.08765       -0.91436
C         16.78684       11.42875       -1.49866
C         15.88993       12.42414       -1.36147
C         14.76159       12.46103       -0.44646
C         14.87375       12.00021        0.86611
C         13.79557       12.06597        1.72726
C         12.58716       12.58918        1.29476
C         12.46983       13.06873       -0.00008
C         13.55034       13.01901       -0.85925
C         17.97807       11.48300       -2.34349
C         18.59043       12.37942       -3.20627
C         19.76359       11.86610       -3.74580
C         20.63000       12.45718       -4.67589
C         21.79672       11.87771       -5.18355
N         22.25880       10.67033       -4.82587
C         23.36927       10.26475       -5.38937
C         23.88263        8.92150       -4.99292
C         24.05971       11.07767       -6.34463
C         25.33283       10.61076       -6.96975
N         23.61615       12.25532       -6.71061
C         22.47455       12.68757       -6.14233
C         21.82305       13.90596       -6.38135
S         20.38931       14.01907       -5.39745
C         22.20736       14.91783       -7.27813
S         21.26897       16.39421       -7.46312
C         22.37257       16.94872       -8.65281
C         22.57872       18.10266       -9.43143
S         21.82676       19.62001       -9.71981
C         23.31397       14.88864       -8.11652
C         23.40499       16.02424       -8.91113
C         24.30980       16.60132       -9.90641
C         25.42823       16.09948      -10.46415
C         25.94321       14.74777      -10.32229
C         25.09557       13.64018      -10.36730
C         25.60683       12.36100      -10.26337
C         26.96979       12.16425      -10.10706
C         27.82313       13.25579      -10.07846
C         27.31750       14.53548      -10.20018
C         23.75569       17.92485      -10.18063
C         24.04243       19.01786      -10.99025
C         23.09907       20.02378      -10.85923
C         23.04937       21.27252      -11.51038
C         22.06473       22.24287      -11.33830
N         21.00979       22.12879      -10.51502
C         20.17793       23.13656      -10.47458
C         19.00413       23.01460       -9.56189
C         20.38362       24.31463      -11.27519
C         19.41810       25.45201      -11.20835
N         21.39973       24.44792      -12.08222
C         22.27552       23.41422      -12.14102
C         23.41009       23.32328      -12.91014
S         24.21826       21.82888      -12.66354
H         24.80023      -11.44762        1.73503
H         22.80942      -12.68927        2.87015
H         18.66198      -11.55087        4.25884
H         22.02943      -12.51349        5.16784
H         22.75500      -14.81238        5.66828
H         21.27662      -16.71763        5.14559
H         19.05881      -16.31099        4.14301
H         18.33575      -14.01328        3.63859
H         17.90349       -9.01545        4.09668
H         14.97609       -9.55315        5.29152
H         13.37316       -8.96581        4.81118
H         13.97388       -8.64094        6.43604
H         12.12808       -6.82077        4.87118
H         12.41642       -5.14059        5.36477
H         12.73621       -6.47647        6.48882
H         14.35096       -2.85492        4.30170
H         12.19475        1.10320        4.20841
H         13.93357       -1.37938        6.18343
H         12.85816       -3.21070        7.42137
H         10.47733       -3.74122        7.02844
H          9.17762       -2.41272        5.40649
H         10.25547       -0.58148        4.16562
H         13.43486        3.21355        3.13410
H         11.03223        5.26101        3.72266
H         10.23868        6.43161        2.65225
H         10.96207        6.97761        4.16380
H         10.79270        8.63439        1.63903
H         12.16981        9.75258        1.58553
H         11.53905        9.17528        3.14091
H         15.03985        9.52216        0.26861
H         16.00745       13.29421       -1.99657
H         15.82190       11.61984        1.21344
H         13.89900       11.70938        2.74168
H         11.74320       12.63486        1.96752
H         11.53361       13.48933       -0.33726
H         13.45714       13.39456       -1.86829
H         18.22863       13.35912       -3.46343
H         23.20383        8.48308       -4.26692
H         24.87549        9.00699       -4.55349
H         23.95390        8.26859       -5.86167
H         26.08003       10.40904       -6.20365
H         25.70576       11.37760       -7.64332
H         25.16694        9.68999       -7.52755
H         23.99394       14.05765       -8.10142
H         26.01764       16.76245      -11.08662
H         24.03748       13.79010      -10.51719
H         24.93862       11.51345      -10.30729
H         27.36784       11.16382      -10.01980
H         28.88736       13.10623       -9.96855
H         27.98469       15.38540      -10.18011
H         24.88662       19.11041      -11.65029
H         19.04208       22.04979       -9.06383
H         18.07378       23.09564      -10.12237
H         19.01729       23.80696       -8.81463
H         19.35878       25.84165      -10.19322
H         18.42236       25.12347      -11.50244
H         19.74924       26.24044      -11.87809
H         23.80864       24.04077      -13.59697
