282
d7a10.out	Energy:   -9774.7205283
C         12.36484       20.87170       18.61530
S         12.76372       19.19599       18.45489
C         12.09850       19.19451       16.87375
C         11.96802       18.29789       15.78896
S         12.33782       16.67893       15.39714
C         11.75050       21.39913       17.52039
C         11.57407       20.44039       16.50430
C         11.07667       20.35653       15.13360
C         10.52246       21.27895       14.32187
C         10.13390       22.63529       14.66293
C          9.51825       22.92860       15.87052
C          9.14425       24.23910       16.17079
O          8.55097       24.41923       17.38157
C          8.13539       25.71530       17.73978
C          9.39335       25.25000       15.25692
C          9.99399       24.95428       14.02958
O         10.17468       26.02463       13.20813
C         10.76082       25.81168       11.94635
C         10.35028       23.65173       13.72575
C         11.36610       18.98261       14.72264
C         11.20918       18.19378       13.59370
C         11.68695       16.89796       13.76646
C         11.70205       15.93955       12.72366
C         11.31462       16.20714       11.40926
C         10.75612       17.19253       10.52033
O         10.39774       18.34878       10.68343
N         10.67063       16.54579        9.27236
C         10.42743       17.32192        8.08216
C         11.65870       18.16717        7.70884
C         12.84083       17.27539        7.33859
C         11.32225       19.11495        6.56140
C         11.16276       15.25977        9.33541
C         11.56963       15.04232       10.63975
C         12.11432       14.02664       11.50331
O         12.48999       12.90482       11.22387
N         12.13933       14.62189       12.77843
C         12.57344       14.05420       14.04632
C         12.73101       12.53543       14.22737
C         11.48572       11.75633       13.81276
C         13.99667       11.97510       13.58432
C         11.22149       14.31772        8.26516
S         12.57287       13.20296        8.27430
C         11.97148       12.46511        6.85671
C         12.32053       11.39430        6.01084
S         13.58538       10.26290        5.82808
C         10.34542       14.08271        7.21882
C         10.75641       13.02225        6.41038
C         10.27698       12.24797        5.26517
C          9.11276       12.27771        4.58990
C          8.01982       13.22798        4.73236
C          8.25427       14.60054        4.73154
C          7.17976       15.47989        4.81380
O          7.28193       16.83711        4.77685
C          8.53417       17.40600        4.48496
C          5.88846       14.98142        4.94338
C          5.65132       13.61060        4.94568
O          4.34932       13.23870        5.06289
C          4.03660       11.86637        5.04662
C          6.71963       12.73251        4.81220
C         11.31618       11.24229        5.04065
C         11.57822       10.21240        4.15018
C         12.78117        9.56628        4.42085
C         13.29332        8.49475        3.65566
C         12.68017        7.92021        2.53654
C         11.51830        7.97912        1.69101
O         10.53003        8.69482        1.69790
N         11.72131        6.96985        0.73066
C         10.70199        6.68747       -0.24518
C          9.87958        5.43519        0.09855
C          9.10799        5.64171        1.39834
C          8.93260        5.12257       -1.05534
C         12.92198        6.31969        0.91253
C         13.51911        6.88692        2.04182
C         14.66969        6.81145        2.89609
O         15.64010        6.07133        2.90281
N         14.47446        7.81465        3.85759
C         15.47680        8.01089        4.87281
C         16.46633        9.13953        4.54320
C         17.42066        9.31884        5.71986
C         17.23291        8.82415        3.26160
C         13.51131        5.33044        0.09225
S         12.78004        4.63796       -1.35697
C         14.19018        3.71087       -1.64667
C         14.69698        2.84425       -2.62881
S         14.19959        2.10876       -4.09369
C         14.78813        4.82109        0.30749
C         15.17993        3.90849       -0.65872
C         16.37633        3.15849       -1.03011
C         17.59558        3.11665       -0.45605
C         17.97992        3.68629        0.82504
C         19.17850        4.38015        0.92381
C         19.56578        4.94037        2.14004
O         20.72967        5.64749        2.12316
C         21.15665        6.26093        3.31489
C         18.78202        4.74263        3.26507
C         17.59851        4.00512        3.18020
O         16.94804        3.82873        4.35749
C         15.67923        3.22151        4.33371
C         17.18689        3.49448        1.95882
C         16.02119        2.50813       -2.28673
C         16.61933        1.66511       -3.20930
C         15.77399        1.33019       -4.26146
C         16.17846        0.53344       -5.35922
C         17.50315        0.17887       -5.63701
C         18.85962        0.26952       -5.16886
O         19.35134        0.72887       -4.15097
N         19.63442       -0.35778       -6.16482
C         21.06406       -0.38823       -5.97318
C         21.74062        0.92195       -6.41506
C         23.22405        0.87195       -6.06267
C         21.56106        1.21262       -7.90239
C         18.85088       -0.82624       -7.20101
C         17.53280       -0.50552       -6.87784
C         16.18989       -0.58774       -7.37421
O         15.73390       -1.04822       -8.40655
N         15.40401        0.03947       -6.38707
C         13.96850       -0.02190       -6.49666
C         13.34576       -1.25745       -5.81423
C         13.95646       -2.55109       -6.34796
C         13.46493       -1.21026       -4.29354
C         19.25322       -1.52678       -8.36541
S         17.98292       -2.08206       -9.46105
C         19.16468       -2.78510      -10.47772
C         19.22947       -3.46591      -11.71104
S         18.16514       -4.06842      -12.90209
C         20.51556       -1.88461       -8.82045
C         20.48042       -2.60790      -10.00268
C         21.42416       -3.19184      -10.95388
C         22.76963       -3.24444      -10.93411
C         23.63052       -2.81898       -9.84070
C         23.32619       -3.14321       -8.52699
C         24.15762       -2.72870       -7.48547
O         23.75572       -3.08594       -6.23564
C         24.58659       -2.76974       -5.14320
C         25.29493       -1.99012       -7.76949
C         25.61740       -1.68200       -9.09466
O         26.76282       -0.96503       -9.25182
C         27.17316       -0.62912      -10.55564
C         24.79668       -2.10345      -10.12810
C         20.57931       -3.70572      -12.02857
C         20.74133       -4.37204      -13.23279
C         19.52963       -4.65220      -13.85587
C         19.42742       -5.34875      -15.08494
C         20.50234       -5.85787      -15.81284
C         21.93422       -5.97566      -15.85164
O         22.82523       -5.57379      -15.11809
N         22.18862       -6.73028      -17.01641
C         23.51905       -7.04574      -17.46263
C         23.93075       -6.24142      -18.70576
C         23.90323       -4.74544      -18.40751
C         25.32107       -6.67899      -19.15688
C         21.03485       -7.05993      -17.65754
C         19.98151       -6.54648      -16.95675
C         18.54142       -6.44769      -16.91984
O         17.67438       -6.88048      -17.64653
N         18.27421       -5.69221      -15.75648
C         16.91800       -5.32411      -15.44375
C         16.58894       -3.87035      -15.81968
C         16.70176       -3.66904      -17.32783
C         15.18599       -3.53100      -15.32660
H         12.61534       21.37029       19.53070
H         11.45313       22.42916       17.45346
H         10.36041       20.98843       13.29070
H          9.28285       22.14803       16.57459
H          7.68445       25.61750       18.72598
H          7.39208       26.10654       17.03830
H          8.98186       26.40720       17.79561
H          9.12914       26.27739       15.44300
H         10.80105       26.79088       11.47194
H         10.15718       25.13638       11.33198
H         11.77580       25.41183       12.03715
H         10.81603       23.39904       12.78713
H         10.77882       18.52538       12.66572
H          9.58324       17.98553        8.29039
H         10.17077       16.65086        7.26359
H         11.92342       18.76411        8.58721
H         12.58763       16.63509        6.49470
H         13.13412       16.64375        8.17425
H         13.69766       17.88451        7.06072
H         11.12206       18.55904        5.64775
H         12.15765       19.78488        6.37344
H         10.44893       19.71609        6.80182
H         11.82361       14.36648       14.78242
H         13.53084       14.51927       14.31760
H         12.84494       12.42484       15.31510
H         11.39821       11.72146       12.73192
H         10.58969       12.21484       14.22755
H         11.55072       10.73522       14.18118
H         13.93866       12.04041       12.50327
H         14.11507       10.93011       13.86091
H         14.87243       12.52242       13.92814
H          9.41793       14.61307        7.09681
H          8.94421       11.48135        3.87456
H          9.26737       14.95086        4.61797
H          8.91505       17.06260        3.51755
H          8.36931       18.48156        4.44773
H          9.26895       17.18352        5.26424
H          5.06058       15.66556        5.02171
H          2.95455       11.81063        5.15365
H          4.50975       11.33573        5.87902
H          4.33064       11.39814        4.10192
H          6.57210       11.66484        4.79349
H         10.95007        9.92058        3.32717
H         11.15297        6.58684       -1.23623
H         10.04180        7.56055       -0.24634
H         10.56356        4.58961        0.23001
H          8.44238        6.49738        1.31155
H          9.78781        5.82476        2.22776
H          8.51468        4.76040        1.63134
H          8.25311        5.95514       -1.22288
H          8.34282        4.23738       -0.83094
H          9.49100        4.94005       -1.97071
H         16.02959        7.06650        4.92538
H         14.99781        8.19134        5.83808
H         15.90915       10.07143        4.39773
H         18.13262       10.11382        5.51240
H         16.87225        9.57702        6.62286
H         17.97329        8.39956        5.90083
H         17.71474        7.85160        3.33466
H         17.99188        9.58142        3.07766
H         16.56322        8.79978        2.40466
H         15.39864        5.13312        1.13523
H         18.38506        2.62162       -1.00902
H         19.80423        4.53114        0.05901
H         22.08002        6.78109        3.06434
H         21.35884        5.52290        4.09785
H         20.42085        6.98507        3.67905
H         19.05041        5.13426        4.23207
H         14.99440        3.77463        3.68517
H         15.73727        2.17833        4.00488
H         15.31566        3.25452        5.35990
H         16.28100        2.91901        1.86642
H         17.63023        1.30376       -3.15127
H         21.50047       -1.25763       -6.46025
H         21.21638       -0.49084       -4.89274
H         21.26899        1.72856       -5.84358
H         23.71706        0.07596       -6.61855
H         23.35975        0.69773       -4.99766
H         23.70409        1.81305       -6.31962
H         22.12642        0.50718       -8.50803
H         21.92235        2.21350       -8.12840
H         20.51373        1.15913       -8.19040
H         13.75964       -0.08242       -7.56982
H         13.51934        0.89124       -6.10347
H         12.28244       -1.23944       -6.07818
H         14.98931       -2.65173       -6.01925
H         13.94386       -2.56713       -7.43443
H         13.39863       -3.40874       -5.97885
H         13.01777       -2.10246       -3.86095
H         12.95082       -0.34193       -3.88891
H         14.50871       -1.17488       -3.98735
H         21.42776       -1.61765       -8.32868
H         23.26949       -3.62337      -11.81683
H         22.46674       -3.75009       -8.29401
H         24.69493       -1.68805       -5.01981
H         24.08910       -3.18344       -4.26770
H         25.57562       -3.22545       -5.24894
H         25.96802       -1.64494       -7.00261
H         28.10266       -0.07465      -10.43738
H         26.43559        0.00455      -11.05835
H         27.35885       -1.52215      -11.16046
H         25.02318       -1.87394      -11.15649
H         21.68444       -4.65645      -13.66486
H         23.58533       -8.11816      -17.67431
H         24.18689       -6.80379      -16.63061
H         23.21483       -6.45373      -19.50840
H         24.58233       -4.51104      -17.59099
H         22.90377       -4.42679      -18.11983
H         24.20385       -4.17728      -19.28462
H         26.05110       -6.48102      -18.37528
H         25.61779       -6.13413      -20.04962
H         25.33841       -7.74289      -19.38316
H         21.04741       -7.64268      -18.55939
H         16.71741       -5.49979      -14.38352
H         16.28716       -5.99564      -16.03515
H         17.30522       -3.20506      -15.32533
H         16.02863       -4.34300      -17.85260
H         17.71476       -3.86812      -17.67141
H         16.44708       -2.64544      -17.59282
H         14.45383       -4.19132      -15.78585
H         14.93317       -2.50570      -15.58411
H         15.12234       -3.63846      -14.24617
