178
d7a3.out	Energy:  -17589.3674658
C         24.43358       -5.56957        8.59874
S         24.10381       -3.87172        8.51124
C         22.94643       -4.16240        7.28013
C         21.99775       -3.42363        6.53083
S         21.47725       -1.80453        6.33573
C         23.70064       -6.31523        7.72627
C         22.84693       -5.51618        6.94172
C         21.80583       -5.67509        5.92770
C         21.35771       -6.77665        5.29439
C         21.93973       -8.10726        5.34857
C         21.11470       -9.22176        5.38751
C         21.66290      -10.50365        5.43826
O         20.76899      -11.52631        5.49757
C         21.25828      -12.84517        5.53936
C         23.03986      -10.66122        5.42052
C         23.87245       -9.54171        5.34415
O         25.20677       -9.81618        5.31467
C         26.11101       -8.73982        5.24552
C         23.32778       -8.26942        5.30848
C         21.28236       -4.32323        5.72936
C         20.31364       -3.69203        4.95485
C         20.27865       -2.32308        5.16451
C         19.40142       -1.36894        4.56602
C         18.40908       -1.71041        3.64697
N         17.54671       -0.87821        3.08823
C         17.56483        0.41960        3.37057
C         18.54753        0.93310        4.26747
C         19.47510        0.01699        4.87897
N         20.33924        0.58871        5.70466
Se        20.03595        2.31620        5.75513
N         18.70052        2.19754        4.62181
C         16.58326        1.24436        2.75493
S         16.59700        2.98634        2.89338
C         15.20862        3.07167        1.88813
C         14.31923        4.04960        1.40228
S         14.10709        5.74964        1.46056
C         15.53685        0.77748        1.97477
C         14.76417        1.80404        1.45089
C         13.57011        1.97508        0.62569
C         12.82559        1.08219       -0.05990
C         13.08993       -0.32972       -0.25841
C         12.00657       -1.20592       -0.34711
C         12.22873       -2.56521       -0.52440
O         11.25052       -3.50727       -0.61309
C          9.90859       -3.09421       -0.52400
C         13.53222       -3.04232       -0.62252
C         14.61540       -2.17051       -0.56596
O         15.84123       -2.74428       -0.68166
C         16.98699       -1.94467       -0.48734
C         14.39123       -0.80889       -0.40042
C         13.30602        3.41018        0.66699
C         12.35966        4.29871        0.16705
C         12.63338        5.61105        0.50662
C         11.87068        6.77303        0.18333
C         12.32148        8.06394        0.45957
N         11.68417        9.19116        0.20007
C         10.48313        9.17487       -0.36400
C          9.87806        7.92517       -0.70160
C         10.58892        6.69958       -0.43523
N          9.93163        5.60607       -0.79866
Se         8.38425        6.05984       -1.49415
N          8.69190        7.77026       -1.26211
C          9.83439       10.41400       -0.61882
S          8.20370       10.47595       -1.24608
C          8.26173       12.18685       -1.21206
C          7.39311       13.26507       -1.46353
S          5.78038       13.52922       -1.97796
C         10.37952       11.67449       -0.41413
C          9.50493       12.69226       -0.76971
C          9.43949       14.15439       -0.75499
C         10.36502       15.07276       -0.41471
C         11.76253       14.83287       -0.09893
C         12.51390       13.92110       -0.82438
C         13.85857       13.70984       -0.51607
O         14.50163       12.79607       -1.28753
C         15.84834       12.50306       -1.00241
C         14.44224       14.41865        0.52173
C         13.69436       15.35649        1.23908
O         14.37959       16.00336        2.22243
C         13.70129       16.96360        2.99487
C         12.36446       15.57550        0.92302
C          8.07442       14.46204       -1.17704
C          7.28585       15.58538       -1.39305
C          6.00813       15.26103       -1.82759
C          4.93742       16.15052       -2.13886
C          5.05809       17.54162       -2.12848
N          4.10182       18.40790       -2.41220
C          2.88213       18.00046       -2.74015
C          2.59489       16.60291       -2.78832
C          3.64602       15.66653       -2.48948
N          3.28192       14.39541       -2.56967
Se         1.59132       14.30450       -3.02806
N          1.43290       16.05121       -3.09450
C          1.89842       18.98336       -3.04187
S          0.25210       18.53819       -3.42199
C         -0.14424       20.19393       -3.61426
C         -1.28847       20.97526       -3.87003
S         -2.95394       20.75495       -4.19797
C          2.10752       20.35446       -3.07811
C          0.95846       21.05508       -3.42191
C          0.50914       22.43915       -3.57311
C          1.18161       23.60403       -3.48500
C          2.61599       23.78588       -3.35583
C          3.50712       22.98941       -4.05895
C          4.88242       23.19389       -3.93910
O          5.66610       22.36210       -4.67285
C          7.06352       22.49793       -4.58006
C          5.35591       24.19816       -3.10995
C          4.45999       25.01667       -2.41619
O          5.04084       25.97851       -1.64688
C          4.20933       26.85391       -0.92440
C          3.09572       24.82330       -2.54810
C         -0.92460       22.33150       -3.82771
C         -1.99896       23.18397       -4.06538
C         -3.17966       22.49912       -4.28321
C         -4.47481       23.04312       -4.55280
C         -5.58703       22.23825       -4.76759
N         -6.82353       22.66477       -5.02691
C         -7.07585       23.94199       -5.09811
C         -6.05922       24.90168       -4.90330
C         -4.71743       24.44821       -4.62173
N         -3.83964       25.42813       -4.45347
Se        -4.65476       26.97017       -4.64318
N         -6.20207       26.22102       -4.95016
H         25.16076       -5.91352        9.30751
H         23.76177       -7.38693        7.67054
H         20.47520       -6.67538        4.67501
H         20.04190       -9.11727        5.40720
H         20.37786      -13.48448        5.58003
H         21.87233      -13.01751        6.42894
H         21.83995      -13.08611        4.64400
H         23.51249      -11.62849        5.45138
H         27.10293       -9.18880        5.24939
H         26.01191       -8.07303        6.10822
H         25.97900       -8.16256        4.32497
H         23.94691       -7.39295        5.21645
H         19.65476       -4.19735        4.27305
H         18.28983       -2.73849        3.33535
H         15.36947       -0.27534        1.85112
H         11.91314        1.45378       -0.51115
H         11.00920       -0.80826       -0.24891
H          9.31473       -4.00201       -0.61799
H          9.64501       -2.40528       -1.33316
H          9.69526       -2.62188        0.44041
H         13.70321       -4.09747       -0.75392
H         17.83360       -2.61985       -0.60216
H         17.00964       -1.50634        0.51576
H         17.05864       -1.15148       -1.23800
H         15.20446       -0.10431       -0.41579
H         11.49534        4.03515       -0.41292
H         13.28852        8.19347        0.92994
H         11.37069       11.78951       -0.01809
H         10.04297       16.10598       -0.35999
H         12.08402       13.38636       -1.65444
H         16.14273       11.74252       -1.72371
H         15.96569       12.10575        0.01045
H         16.48589       13.38459       -1.12434
H         15.47334       14.28855        0.80431
H         14.43251       17.33548        3.71085
H         12.85808       16.52214        3.53567
H         13.34374       17.79522        2.37900
H         11.76736       16.28998        1.46651
H          7.60848       16.59810       -1.23546
H          6.00454       17.99918       -1.87671
H          3.06956       20.77313       -2.85107
H          0.59450       24.51454       -3.50782
H          3.15517       22.22793       -4.73413
H          7.47744       21.73144       -5.23320
H          7.41523       22.33067       -3.55721
H          7.39514       23.48349       -4.92218
H          6.40688       24.39410       -2.97910
H          4.88076       27.52799       -0.39496
H          3.59206       26.31473       -0.19868
H          3.56412       27.43611       -1.59007
H          2.38635       25.43993       -2.02016
H         -1.95724       24.25691       -4.08250
H         -5.48176       21.16174       -4.72923
H         -8.09026       24.24487       -5.31122
