258
d8a5.out	Energy:  -13770.2925151
C         -4.64800      -10.26949        2.45837
S         -5.31950       -9.50549        3.85515
C         -5.84868       -8.15145        2.88907
C         -6.48206       -7.01346        3.37703
C         -6.77975       -6.81919        4.77853
C         -6.65464       -5.67034        5.51110
C         -7.02518       -5.81045        6.86605
C         -6.95926       -4.70433        7.86936
C         -7.44328       -7.07800        7.16341
C         -7.90982       -7.59239        8.47909
S         -7.37178       -8.11521        5.77904
C         -6.80573       -6.02346        2.42444
C         -7.53726       -4.83651        2.63424
C         -4.81142       -9.55800        1.32434
C         -5.50562       -8.33011        1.52864
C         -5.80917       -7.32989        0.58274
C         -5.51672       -7.46844       -0.82939
C         -5.11745       -6.49714       -1.70346
C         -4.99104       -6.93891       -3.03914
C         -4.56166       -6.06213       -4.17014
C         -5.30995       -8.25922       -3.18543
C         -5.29768       -9.06506       -4.43618
S         -5.75848       -8.97358       -1.67352
C         -6.44335       -6.18983        1.06538
S         -6.96123       -4.82376        0.10808
C         -7.71177       -4.07702        1.50607
C         -8.38449       -2.82590        1.37704
C         -8.38581       -2.14648        0.14541
N         -7.78967       -2.59170       -0.95901
S         -7.97228       -1.59211       -2.19742
N         -8.89281       -0.47596       -1.31304
C         -9.05325       -0.88603       -0.02271
C         -9.08288       -2.18522        2.44114
N         -9.12480       -2.77163        3.64988
C         -9.74105       -2.18446        4.64778
C         -9.75748       -2.90272        5.95812
C        -10.34374       -0.91810        4.47470
C        -10.98992       -0.18914        5.60650
N        -10.34739       -0.33636        3.29581
C         -9.75131       -0.93580        2.25560
C         -9.76335       -0.26855        0.98883
C        -10.47486        0.97165        0.80816
S         -9.88652        2.20608       -0.30534
C        -11.23538        3.25252        0.06177
C        -11.44040        4.51529       -0.47673
C        -10.50227        5.09834       -1.41238
C         -9.82784        4.47703       -2.42687
C         -8.94355        5.32083       -3.13337
C         -8.10780        4.87754       -4.29014
C         -8.93611        6.59561       -2.63997
C         -8.13566        7.75170       -3.12622
S        -10.02789        6.77063       -1.30907
C        -12.60450        5.19193       -0.04475
C        -13.07020        6.45952       -0.44066
C        -11.62596        1.37107        1.41641
C        -12.08093        2.65450        1.02613
C        -13.23418        3.34179        1.46156
C        -14.10283        2.78656        2.47981
C        -13.75091        2.15020        3.63566
C        -14.84959        1.75263        4.43191
C        -14.71054        1.04057        5.73896
C        -16.04762        2.08200        3.86427
C        -17.41552        1.82478        4.39367
S        -15.83346        2.90263        2.35278
C        -13.47941        4.58178        0.88922
S        -14.85160        5.60721        1.24765
C        -14.24473        6.83479        0.16625
C        -14.95447        8.05448        0.00926
C        -14.48940        9.15312       -0.74344
N        -13.32064        9.21051       -1.37551
S        -13.06577       10.63398       -2.06715
N        -14.56685       11.27130       -1.59029
C        -15.26675       10.36585       -0.84639
C        -16.19146        8.23829        0.67730
N        -16.65083        7.24513        1.44799
C        -17.78392        7.38110        2.09969
C        -18.23691        6.22888        2.93259
C        -18.51805        8.58513        2.00472
C        -19.79042        8.81192        2.75087
N        -18.08464        9.56569        1.23916
C        -16.94660        9.43410        0.55854
C        -16.51279       10.52371       -0.25883
C        -17.34432       11.68449       -0.37271
S        -18.72500       11.86410        0.67936
C        -19.08756       13.43473       -0.00814
C        -20.12151       14.27361        0.38772
C        -21.03777       13.87080        1.43137
C        -21.53605       12.61694        1.66027
C        -22.37551       12.52663        2.79066
C        -23.04009       11.26500        3.23808
C        -22.50700       13.72375        3.43855
C        -23.30386       14.01115        4.66180
S        -21.61000       14.97583        2.65009
C        -20.20698       15.52310       -0.27187
C        -21.14400       16.54979       -0.06148
C        -17.22225       12.74682       -1.23196
C        -18.16348       13.77533       -1.02265
C        -18.23773       15.02856       -1.67367
C        -17.26816       15.45449       -2.66045
C        -17.47014       16.24435       -3.75600
C        -16.29537       16.55169       -4.47963
C        -16.27452       17.40172       -5.70824
C        -15.17763       15.99652       -3.92656
C        -13.77278       16.10132       -4.40507
S        -15.56891       15.07678       -2.51052
C        -19.26888       15.86906       -1.27943
S        -19.55834       17.48761       -1.88979
C        -20.93314       17.66995       -0.83224
C        -21.68332       18.87323       -0.83597
C        -22.81565       19.10355       -0.03146
N        -23.34791       18.22508        0.81229
S        -24.63774       18.80404        1.56321
N        -24.56208       20.30254        0.78487
C        -23.51193       20.36749       -0.08231
C        -21.30074       19.94539       -1.68306
N        -20.23236       19.74377       -2.46387
C        -19.80832       20.68455       -3.27485
C        -18.61205       20.38456       -4.11490
C        -20.48695       21.92141       -3.31690
C        -20.05367       23.03270       -4.21671
N        -21.53790       22.14037       -2.55511
C        -21.98983       21.19059       -1.72841
C        -23.14114       21.43070       -0.89753
C        -23.83417       22.69057       -0.93115
S        -25.04226       23.14036        0.27812
C        -25.29656       24.69872       -0.45777
C        -26.19654       25.65756       -0.02089
C        -27.10798       25.43664        1.07944
C        -28.41740       25.82004        1.17821
C        -29.04281       25.42598        2.38160
C        -30.47209       25.71045        2.71360
C        -28.19742       24.74187        3.20968
C        -28.50154       24.17894        4.55264
S        -26.62451       24.56285        2.50730
C        -26.20157       26.87528       -0.74349
C        -26.94554       28.03412       -0.46486
C        -23.66964       23.70964       -1.82756
C        -24.47531       24.84526       -1.60134
C        -24.52118       26.04216       -2.35244
C        -23.72525       26.23861       -3.54583
C        -23.11767       27.38778       -3.96950
C        -22.44488       27.26399       -5.20457
C        -21.70009       28.37889       -5.86370
C        -22.55165       26.00836       -5.73345
C        -21.97579       25.50698       -7.01072
S        -23.47856       24.96516       -4.70927
C        -25.37257       27.03491       -1.88404
S        -25.60364       28.60827       -2.60787
C        -26.75563       29.05594       -1.36540
C        -27.35793       30.34422       -1.37795
C        -27.03208       31.26135       -2.39896
N        -26.17313       31.01956       -3.38177
S        -26.01870       32.26563       -4.38616
N        -27.13337       33.23963       -3.53281
C        -27.62897       32.57016       -2.44695
C        -28.30171       30.79131       -0.40382
N        -28.66076       29.98393        0.60819
C        -29.52571       30.40566        1.50341
C        -29.87164       29.46183        2.60995
C        -30.09581       31.69629        1.41393
C        -31.08820       32.19441        2.41313
N        -29.76509       32.50903        0.43391
C        -28.87580       32.09728       -0.48359
C        -28.53203       32.99400       -1.52088
H         -4.16303      -11.21871        2.57673
H         -6.26636       -4.75558        5.09992
H         -6.67990       -3.77251        7.38537
H         -6.22197       -4.93161        8.63940
H         -7.92288       -4.57272        8.36064
H         -7.13003       -7.47411        9.23237
H         -8.16780       -8.64528        8.40593
H         -8.78690       -7.03924        8.81780
H         -7.96231       -4.54505        3.57390
H         -4.44176       -9.88259        0.36950
H         -4.89069       -5.49225       -1.39676
H         -4.40273       -5.04680       -3.81846
H         -5.32120       -6.04727       -4.95122
H         -3.63615       -6.43092       -4.61234
H         -5.62541      -10.08210       -4.23853
H         -4.29331       -9.09729       -4.86052
H         -5.95959       -8.62191       -5.18095
H         -9.27394        0.38175       -1.67949
H         -9.26070       -3.86308        5.85245
H        -10.78240       -3.06190        6.29010
H         -9.24454       -2.31559        6.71903
H        -10.29688       -0.08763        6.44026
H        -11.86428       -0.73570        5.95847
H        -11.29387        0.79762        5.27100
H         -9.98898        3.44723       -2.69220
H         -8.27504        3.82416       -4.49685
H         -7.04984        5.02824       -4.07746
H         -8.35291        5.45284       -5.18245
H         -8.32360        8.62917       -2.51338
H         -8.39252        7.98601       -4.16018
H         -7.07060        7.52011       -3.09193
H        -12.58042        7.09600       -1.15215
H        -12.15207        0.73850        2.10479
H        -12.72660        2.00590        3.92907
H        -13.74931        1.26837        6.19236
H        -14.77428       -0.03832        5.59161
H        -15.50236        1.33403        6.42458
H        -17.57189        0.75773        4.55296
H        -18.16373        2.18698        3.69389
H        -17.55917        2.33195        5.34881
H        -14.77865       12.25546       -1.61949
H        -17.52568        5.41484        2.82619
H        -19.22331        5.89503        2.61431
H        -18.30088        6.51973        3.98026
H        -19.63946        8.65602        3.81785
H        -20.55670        8.11422        2.41448
H        -20.12583        9.83019        2.57741
H        -21.33690       11.78374        1.01060
H        -22.88632       10.47770        2.50538
H        -24.11034       11.41985        3.36955
H        -22.63089       10.93603        4.19350
H        -24.35988       13.79901        4.48857
H        -23.20073       15.05471        4.94655
H        -22.97015       13.38576        5.49053
H        -21.96230       16.49658        0.63039
H        -16.52763       12.77447       -2.04995
H        -18.44628       16.57633       -4.05899
H        -17.28833       17.63982       -6.01744
H        -15.76788       16.88728       -6.52405
H        -15.74043       18.33291       -5.51818
H        -13.67785       15.68241       -5.40803
H        -13.09972       15.56726       -3.73939
H        -13.46410       17.14625       -4.45021
H        -25.25432       21.02301        0.90575
H        -18.23941       19.39706       -3.85934
H        -17.83156       21.12397       -3.94302
H        -18.87526       20.41210       -5.17162
H        -20.05361       22.70187       -5.25425
H        -19.04324       23.35208       -3.96460
H        -20.73114       23.87450       -4.10871
H        -28.93563       26.33534        0.38939
H        -30.93522       26.29168        1.92116
H        -30.54654       26.26588        3.64815
H        -31.02744       24.78056        2.83508
H        -28.83927       24.96512        5.22874
H        -27.61909       23.70809        4.97720
H        -29.29660       23.43529        4.48370
H        -27.59087       28.15667        0.38257
H        -22.96028       23.62550       -2.62620
H        -23.12160       28.29712       -3.39675
H        -21.77294       29.28352       -5.26704
H        -22.10965       28.57881       -6.85321
H        -20.64821       28.12043       -5.98436
H        -22.39271       26.05240       -7.85810
H        -22.19268       24.44967       -7.13681
H        -20.89456       25.64887       -7.02305
H        -27.38960       34.17349       -3.79639
H        -29.30445       28.54282        2.49282
H        -30.93662       29.23285        2.59601
H        -29.63635       29.90752        3.57550
H        -31.96423       31.54746        2.43476
H        -31.39148       33.20216        2.14470
H        -30.65130       32.20315        3.41087
H        -28.98654       33.97016       -1.54531
