230
d10a10.out	Energy:   -8097.2328093
C         25.55087       -5.44741       19.06248
S         26.02487       -5.21598       17.41782
C         24.47677       -4.55988       17.06609
C         23.78268       -4.02317       15.94942
C         22.50278       -3.65231       16.36530
C         22.30095       -3.94546       17.83472
C         23.65015       -4.53065       18.18018
C         24.27381       -5.04241       19.32553
C         21.17799       -4.96292       18.05359
C         22.02993       -2.66215       18.62500
C         21.74515       -3.10347       15.34593
C         22.43724       -3.04674       14.13945
S         24.06503       -3.71081       14.29362
C         22.05934       -2.56560       12.86224
C         22.83869       -2.63734       11.70904
C         24.11374       -3.06295       11.20909
O         25.06118       -3.60760       11.74786
N         24.10348       -2.69976        9.84496
C         25.19889       -3.10267        9.00246
C         24.81514       -4.21542        8.01483
C         26.01216       -4.53848        7.12531
C         24.35275       -5.45677        8.77245
C         22.91613       -2.09056        9.48853
C         22.11986       -2.06366       10.63057
C         20.84797       -1.62929       11.13081
O         19.89210       -1.10761       10.58385
N         20.87169       -1.95786       12.50226
C         19.76937       -1.55582       13.33564
C         20.09983       -0.33888       14.21524
C         20.42013        0.87175       13.34328
C         18.92018       -0.04422       15.13740
C         22.56573       -1.52896        8.23620
S         20.90886       -0.96114        8.05195
C         21.26942       -0.42505        6.46675
C         20.61912        0.23682        5.40305
C         21.52920        0.44858        4.36232
C         22.88185       -0.12410        4.71341
C         22.60168       -0.65158        6.10181
C         23.32706       -1.28119        7.09571
C         23.95811        0.96406        4.72436
C         23.26581       -1.25282        3.75216
C         20.98238        1.13222        3.29417
C         19.63846        1.44820        3.49138
S         19.06658        0.86141        5.05045
C         18.85849        2.16395        2.55546
C         19.33467        2.71960        1.36262
C         20.50912        2.93652        0.56086
O         21.66529        2.56048        0.67105
N         20.07007        3.73081       -0.51430
C         20.99183        4.09981       -1.55616
C         21.78613        5.40524       -1.27499
C         21.20207        6.20726       -0.11239
C         23.24574        5.06670       -0.97765
C         18.72060        4.00420       -0.43255
C         18.25110        3.35790        0.70639
C         17.06718        3.15931        1.49288
O         15.90471        3.46837        1.30255
N         17.51057        2.44407        2.62200
C         16.58295        2.12881        3.67678
C         16.65488        3.11465        4.85468
C         16.25180        4.51685        4.40879
C         15.75072        2.61813        5.97816
C         17.95087        4.82178       -1.29566
S         16.20036        4.74747       -1.12919
C         16.03454        5.94759       -2.34005
C         15.00402        6.67061       -2.97972
C         15.56803        7.60798       -3.85150
C         17.07465        7.51706       -3.83154
C         17.26527        6.40841       -2.82323
C         18.34233        5.76428       -2.24479
C         17.69866        8.82835       -3.34565
C         17.62395        7.13678       -5.20891
C         14.62756        8.38418       -4.49881
C         13.32075        8.04443       -4.15154
S         13.29416        6.72585       -2.98308
C         12.18003        8.68702       -4.68339
C         12.19618        9.79516       -5.53626
C         13.06147       10.74694       -6.17601
O         14.27553       10.87007       -6.20646
N         12.19628       11.61677       -6.86234
C         12.77410       12.74800       -7.54375
C         13.14263       13.88222       -6.57259
C         13.88359       14.97599       -7.33464
C         11.91363       14.45392       -5.87346
C         10.87574       11.25472       -6.71151
C         10.85961       10.12335       -5.88674
C          9.99517        9.16985       -5.24189
O          8.78630        9.00496       -5.26571
N         10.85941        8.33981       -4.50650
C         10.31922        7.29892       -3.67128
C         10.24657        7.69718       -2.18800
C          9.25102        8.83495       -1.98471
C          9.85863        6.47743       -1.35855
C          9.73288       11.85745       -7.29039
S          9.73532       13.30660       -8.29151
C          8.03878       13.20349       -8.48268
C          7.00722       13.91547       -9.13328
C          5.79614       13.25450       -8.89681
C          6.00313       12.03076       -8.03410
C          7.49590       12.10142       -7.81758
C          8.44218       11.35199       -7.14465
C          5.62149       10.74538       -8.77375
C          5.24144       12.13713       -6.71055
C          4.72094       13.88247       -9.49610
C          5.09081       15.03405      -10.18804
S          6.82743       15.32337      -10.08760
C          4.33123       15.96818      -10.93737
C          4.85175       17.07177      -11.60275
C          6.07007       17.77924      -11.87159
O          7.22568       17.59060      -11.52912
N          5.66842       18.85138      -12.69895
C          6.58463       19.86201      -13.15501
C          6.35534       21.21843      -12.46986
C          6.49078       21.08274      -10.95615
C          7.35268       22.23641      -13.01451
C          4.32775       18.82411      -12.92993
C          3.78841       17.75102      -12.27774
C          2.56855       17.02751      -12.00879
O          1.42241       17.19693      -12.36248
N          2.97063       15.95449      -11.17787
C          1.96630       15.07423      -10.64102
C          1.65223       15.35347       -9.16181
C          1.10360       16.76750       -8.99450
C          0.64960       14.32059       -8.65497
H         26.25717       -5.87562       19.74582
H         23.81915       -5.11462       20.29702
H         21.10563       -5.21940       19.10768
H         20.22720       -4.54769       17.72796
H         21.37544       -5.86969       17.48658
H         21.96741       -2.88295       19.68777
H         22.83141       -1.94477       18.46434
H         21.09208       -2.21515       18.30390
H         20.73522       -2.76815       15.47646
H         25.61228       -2.23620        8.47806
H         25.96375       -3.48102        9.68915
H         23.98943       -3.86480        7.38584
H         26.84647       -4.88988        7.72805
H         25.75318       -5.31580        6.41073
H         26.33533       -3.65936        6.57119
H         23.47215       -5.23741        9.37251
H         24.10072       -6.25361        8.07658
H         25.13773       -5.80985        9.43738
H         18.96673       -1.28393       12.64177
H         19.42761       -2.40105       13.93920
H         20.98124       -0.56762       14.82462
H         19.58097        1.10359       12.69154
H         20.63142        1.74009       13.96312
H         21.29021        0.67852       12.71955
H         18.69796       -0.89840       15.77439
H         19.14212        0.80794       15.77501
H         18.03287        0.18634       14.55229
H         24.36727       -1.52713        7.00728
H         24.91529        0.54333        5.02282
H         24.05571        1.39512        3.73138
H         23.69038        1.75368        5.42276
H         24.20914       -1.69983        4.05658
H         22.49886       -2.02415        3.74927
H         23.36983       -0.85973        2.74423
H         21.50941        1.41525        2.40046
H         21.70519        3.27289       -1.62967
H         20.44218        4.15896       -2.49703
H         21.75313        6.02739       -2.17728
H         21.29208        5.64635        0.81516
H         21.75193        7.13893        0.00065
H         20.15355        6.44825       -0.27077
H         23.71347        4.59220       -1.83764
H         23.80575        5.96744       -0.73659
H         23.29948        4.38390       -0.13334
H         15.58769        2.18945        3.22467
H         16.75006        1.10625        4.02508
H         17.68539        3.15029        5.22406
H         15.24824        4.50922        3.99020
H         16.27332        5.20239        5.25294
H         16.93186        4.89279        3.64746
H         16.06929        1.63668        6.32176
H         15.78527        3.30341        6.82120
H         14.72172        2.54945        5.63261
H         19.36478        5.99708       -2.47037
H         18.77982        8.73007       -3.28407
H         17.45437        9.63052       -4.03709
H         17.31476        9.08718       -2.36141
H         18.70373        7.01731       -5.16187
H         17.18308        6.20184       -5.54761
H         17.38614        7.91604       -5.92826
H         14.84618        9.17678       -5.19191
H         13.69573       12.38776       -8.01341
H         12.10251       13.10859       -8.32119
H         13.81363       13.45863       -5.81825
H         13.25122       15.38544       -8.11968
H         14.16095       15.78285       -6.66107
H         14.78928       14.58165       -7.78861
H         11.35065       13.67186       -5.36802
H         12.21497       15.18739       -5.12920
H         11.26156       14.94447       -6.59255
H          9.30528        7.11557       -4.04071
H         10.90825        6.38601       -3.79190
H         11.23577        8.03987       -1.86612
H          8.26011        8.53681       -2.31901
H          9.19716        9.10691       -0.93308
H          9.54765        9.71555       -2.55010
H         10.60030        5.68923       -1.46542
H          9.79064        6.74251       -0.30662
H          8.89304        6.09321       -1.67964
H          8.23527       10.47182       -6.56257
H          5.88059        9.88141       -8.16733
H          4.55276       10.72943       -8.97334
H          6.15475       10.68090       -9.71962
H          5.49193       11.29336       -6.07293
H          5.50755       13.05639       -6.19371
H          4.16947       12.13670       -6.89326
H          3.71564       13.51594       -9.43219
H          7.58675       19.49393      -12.91587
H          6.49448       19.97311      -14.24085
H          5.33960       21.55840      -12.70335
H          7.47378       20.69562      -10.69804
H          6.35995       22.04952      -10.47580
H          5.74178       20.40073      -10.55933
H          7.25556       22.33554      -14.09344
H          7.18219       23.21113      -12.56426
H          8.36998       21.92639      -12.78698
H          3.85619       19.56582      -13.54706
H          1.06587       15.26600      -11.23426
H          2.26134       14.03265      -10.79498
H          2.57549       15.27252       -8.57730
H          0.21574       16.90618       -9.60672
H          0.84332       16.95211       -7.95482
H          1.84242       17.50646       -9.29699
H          1.04299       13.31052       -8.75410
H          0.42242       14.49660       -7.60650
H         -0.27604       14.38423       -9.22229
