126
d10a3.out	Energy:  -15911.8769344
C         -2.59338        3.80268        1.41856
S         -1.23124        4.84125        1.64957
C         -0.18071        3.56747        1.17426
C          1.21160        3.34787        1.00424
C          1.40399        2.03624        0.57519
C          0.08435        1.31015        0.44435
C         -0.87009        2.40611        0.85701
C         -2.25691        2.54805        0.99968
C          0.00958        0.11643        1.40038
C         -0.16631        0.86317       -0.99825
C          2.74219        1.72862        0.37709
C          3.57870        2.80010        0.65379
S          2.68286        4.21328        1.17104
C          5.00183        2.84287        0.55340
C          5.77061        1.76154        0.12136
N          7.08601        1.74054       -0.00157
C          7.82061        2.80585        0.29450
C          7.18150        3.99471        0.75898
C          5.74675        4.00797        0.88762
N          5.24985        5.15574        1.32483
Se         6.56231        6.28706        1.59867
N          7.77840        5.12501        1.09585
C          9.22951        2.70789        0.12678
S         10.30535        4.04016        0.46562
C         11.64786        3.07261        0.00209
C         13.05154        3.19032       -0.10863
C         13.57150        1.97742       -0.57223
C         12.47381        0.96448       -0.79179
C         11.26950        1.78223       -0.39157
C          9.90531        1.57835       -0.32075
C         12.64614       -0.25305        0.12033
C         12.39251        0.53517       -2.25900
C         14.94689        2.00136       -0.71710
C         15.49691        3.22899       -0.36766
S         14.27462        4.36944        0.15152
C         16.87382        3.59665       -0.40290
C         17.88365        2.72632       -0.81967
N         19.17269        3.00236       -0.88066
C         19.63815        4.19645       -0.53025
C         18.72990        5.20021       -0.07756
C         17.32428        4.88941       -0.01537
N         16.56438        5.88492        0.41565
Se        17.57741        7.27304        0.77034
N         19.04316        6.42658        0.30377
C         21.03995        4.40993       -0.63024
S         21.79386        5.92671       -0.20800
C         23.33069        5.27706       -0.62136
C         24.68264        5.68670       -0.65204
C         25.46660        4.62329       -1.11255
C         24.61697        3.41372       -1.41756
C         23.25082        3.94914       -1.06328
C         21.95922        3.46211       -1.06767
C         24.99659        2.22515       -0.53033
C         24.69821        3.03258       -2.89820
C         26.81267        4.93401       -1.17711
C         27.07762        6.23578       -0.76875
S         25.62020        7.08282       -0.29664
C         28.34905        6.87814       -0.71343
C         29.54065        6.24469       -1.07357
N         30.74645        6.78196       -1.04806
C         30.93110        8.03730       -0.65706
C         29.80847        8.82137       -0.25348
C         28.49724        8.22623       -0.28321
N         27.52306        9.03261        0.11062
Se        28.20209       10.59176        0.54042
N         29.83667       10.07658        0.16090
C         32.25930        8.54606       -0.66016
S         32.62316       10.18485       -0.18404
C         34.28880        9.89893       -0.48734
C         35.51095       10.60523       -0.42103
C         36.54799        9.75748       -0.82137
C         36.01843        8.38961       -1.18356
C         34.54274        8.59569       -0.93275
C         33.39435        7.83288       -1.03055
C         36.59135        7.30664       -0.26510
C         36.29245        8.05297       -2.65173
C         37.78709       10.37559       -0.78795
C         37.70961       11.69568       -0.36448
S         36.06597       12.17339       -0.00163
C         38.78399       12.62722       -0.21417
C         40.11394       12.31809       -0.47994
N         41.14464       13.15600       -0.35508
C         40.95967       14.38372        0.04581
C         39.67001       14.86402        0.35952
C         38.55301       13.96257        0.22633
N         37.38013       14.49267        0.53982
Se        37.61836       16.16035        1.02373
N         39.34729       16.08416        0.77546
H         -3.57386        4.19159        1.60995
H         -2.97984        1.77575        0.80720
H         -0.97378       -0.34486        1.34756
H          0.75990       -0.62390        1.13340
H          0.18853        0.44121        2.42293
H         -1.15194        0.41216       -1.08479
H         -0.11196        1.71564       -1.67148
H          0.58159        0.13336       -1.29879
H          3.10399        0.77210        0.04762
H          5.29035        0.83298       -0.15355
H          9.37680        0.67748       -0.57017
H         11.80014       -0.92586        0.00666
H         13.55822       -0.78656       -0.13549
H         12.70506        0.06068        1.15980
H         11.54279       -0.12633       -2.40651
H         12.27240        1.40551       -2.89992
H         13.30108        0.01207       -2.54719
H         15.53604        1.17135       -1.06064
H         17.63640        1.72175       -1.13260
H         21.64452        2.47897       -1.36329
H         24.31729        1.39551       -0.70861
H         26.01169        1.90334       -0.74970
H         24.93807        2.50469        0.51895
H         24.01473        2.21435       -3.11008
H         24.42886        3.88233       -3.52105
H         25.70925        2.72191       -3.14996
H         27.57802        4.25526       -1.50518
H         29.52666        5.21801       -1.41097
H         33.32832        6.80921       -1.34818
H         36.13143        6.34752       -0.48872
H         37.66590        7.22415       -0.40838
H         36.39582        7.55291        0.77578
H         35.82771        7.10472       -2.90913
H         35.88649        8.82718       -3.29826
H         37.36315        7.97919       -2.82536
H         38.71245        9.90063       -1.05721
H         40.38887       11.32977       -0.81902
H         41.82746       15.02132        0.12941
