130
d11a3.out	Energy:  -16064.3614434
C         20.79850        5.10585       -4.21342
S         20.29711        3.47032       -3.97395
C         18.79463        4.02231       -3.30030
C         17.75122        3.24403       -2.82563
S         17.64355        1.51347       -2.76737
C         19.88566        6.01497       -3.80845
C         18.70309        5.42574       -3.26993
C         17.54467        6.05792       -2.75261
C         17.46482        7.55860       -2.72795
C         16.50406        5.28564       -2.27835
C         15.24274        5.87227       -1.71430
C         16.60219        3.87271       -2.31370
C         15.65004        2.91908       -1.88354
C         16.04841        1.61983       -2.05679
C         15.31846        0.42698       -1.73536
C         14.03976        0.43532       -1.18792
N         13.31402       -0.63244       -0.88502
C         13.77838       -1.85380       -1.08866
C         15.08335       -2.03085       -1.63667
C         15.86240       -0.86582       -1.96596
N         17.05755       -1.13626       -2.47170
Se        17.26788       -2.87261       -2.56068
N         15.68001       -3.18420       -1.88910
C         12.93965       -2.96358       -0.75405
S         13.45988       -4.60918       -0.98670
C         11.93751       -5.18098       -0.38045
C         11.53337       -6.49783       -0.24208
S         12.42617       -7.93471       -0.62829
C         11.67050       -2.88021       -0.23835
C         11.06370       -4.13376       -0.01169
C          9.76947       -4.42142        0.50251
C          8.86073       -3.28887        0.88752
C          9.36950       -5.73247        0.63689
C          8.02087       -6.12508        1.16567
C         10.25093       -6.78118        0.26451
C         10.02422       -8.17343        0.32477
C         11.08262       -8.92796       -0.11507
C         11.16908      -10.35785       -0.18699
C         10.13514      -11.20860        0.19149
N         10.15758      -12.53301        0.14081
C         11.22394      -13.18254       -0.29634
C         12.37228      -12.45015       -0.71970
C         12.33833      -11.01191       -0.66255
N         13.45157      -10.42498       -1.07855
Se        14.60430      -11.65072       -1.56406
N         13.50494      -12.95864       -1.17666
C         11.17785      -14.61193       -0.32826
S         12.52540      -15.56663       -0.88059
C         11.62253      -17.01995       -0.58616
C         12.04045      -18.32345       -0.79415
S         13.57220      -18.86969       -1.39910
C         10.10839      -15.38235        0.05496
C         10.32736      -16.76929       -0.07978
C          9.44740      -17.84584        0.21836
C          8.07643      -17.54923        0.75590
C          9.86598      -19.14111        0.00936
C          9.00249      -20.33452        0.29657
C         11.16807      -19.38851       -0.49951
C         11.77292      -20.63353       -0.77793
C         13.05248      -20.53318       -1.26357
C         13.93414      -21.60027       -1.63974
C         13.58411      -22.94558       -1.57737
N         14.35996      -23.96894       -1.90744
C         15.59324      -23.77839       -2.34553
C         16.10087      -22.45137       -2.47027
C         15.25159      -21.34639       -2.11002
N         15.81483      -20.15617       -2.26152
Se        17.44540      -20.36076       -2.86553
N         17.30583      -22.10674       -2.89448
C         16.38032      -24.92603       -2.67955
S         18.01865      -24.77937       -3.25112
C         18.13718      -26.50693       -3.36884
C         19.23323      -27.24522       -3.78320
S         20.78323      -26.65845       -4.29489
C         15.96733      -26.23196       -2.59332
C         16.94998      -27.16757       -2.98163
C         16.86932      -28.58694       -3.01610
C         15.59425      -29.26329       -2.60039
C         17.96106      -29.31830       -3.42902
C         17.96319      -30.81753       -3.49408
C         19.15253      -28.65010       -3.81511
C         20.36638      -29.21908       -4.25967
C         21.33637      -28.29578       -4.55537
C         22.67153      -28.54736       -5.02411
C         23.17524      -29.81932       -5.25521
N         24.40843      -30.10000       -5.68723
C         25.25923      -29.14377       -5.93129
C         24.90855      -27.78825       -5.74961
C         23.57947      -27.48231       -5.28393
N         23.33508      -26.18753       -5.14174
Se        24.76653      -25.28335       -5.58303
N         25.67722      -26.72567       -5.96226
H         21.76073        5.29079       -4.64953
H         20.05517        7.07296       -3.89352
H         18.36181        8.00796       -3.13854
H         17.34535        7.91798       -1.70643
H         16.61524        7.90558       -3.31507
H         15.25580        6.95588       -1.72264
H         15.10516        5.53811       -0.68635
H         14.38431        5.53436       -2.29417
H         14.69978        3.18552       -1.45969
H         13.54673        1.37319       -0.97432
H         11.22863       -1.92023       -0.04721
H          9.33956       -2.33017        0.72560
H          8.58915       -3.35785        1.94019
H          7.94643       -3.31495        0.29569
H          7.41584       -5.26292        1.42057
H          8.13572       -6.74076        2.05724
H          7.48596       -6.71202        0.41967
H          9.10858       -8.60710        0.68133
H          9.20663      -10.80190        0.56656
H          9.21133      -14.91556        0.41637
H          7.91811      -16.48195        0.85752
H          7.94345      -18.00584        1.73595
H          7.31102      -17.94280        0.08810
H          8.02946      -20.05074        0.67995
H          9.48781      -20.97642        1.03111
H          8.85747      -20.91616       -0.61324
H         11.28117      -21.57590       -0.62366
H         12.60087      -23.23598       -1.23508
H         14.97491      -26.46184       -2.25343
H         14.84285      -28.53841       -2.30980
H         15.77184      -29.92502       -1.75348
H         15.19233      -29.85719       -3.42036
H         17.01497      -31.24057       -3.18401
H         18.74510      -31.21644       -2.84867
H         18.16949      -31.14530       -4.51242
H         20.52049      -30.27750       -4.35747
H         22.56048      -30.69163       -5.08779
H         26.24335      -29.42265       -6.27809
