162
d1a6.out	Energy:  -10189.5767608
C         23.50275       -0.38639        5.14735
S         21.81007       -0.07346        4.95654
C         22.17334        1.21326        3.88192
C         21.47927        2.21899        3.17372
S         19.86606        2.73236        2.90449
C         24.30012        0.44615        4.42220
C         23.54957        1.36954        3.67024
C         23.76421        2.51379        2.78843
C         24.90029        3.06540        2.31813
C         26.24658        2.54004        2.45748
C         26.50965        1.17980        2.29983
C         27.79871        0.68684        2.41890
C         28.08317       -0.77302        2.23130
C         28.83308        1.57078        2.70143
C         28.60192        2.93350        2.84131
C         29.73361        3.86581        3.15198
C         27.30821        3.40998        2.70346
C         22.42082        3.02930        2.52025
C         21.83733        4.06132        1.79577
C         20.45189        4.05176        1.90090
C         19.56735        4.97020        1.31290
C         19.88592        6.06129        0.49750
N         21.02735        6.56265        0.03082
S         20.67263        7.86918       -0.84856
N         19.06335        7.86811       -0.68217
C         18.73252        6.82631        0.07550
C         17.51975        6.32674        0.56586
S         17.83924        4.91183        1.53672
C         16.23603        6.85011        0.36860
S         14.83368        6.17507        1.18472
C         13.84011        7.37289        0.45981
C         12.48710        7.71769        0.43256
S         11.01011        7.19674        1.13434
C         15.91210        7.94491       -0.42926
C         14.56397        8.26159       -0.37168
C         13.62389        9.21881       -0.95673
C         13.82351       10.22370       -1.83290
C         15.09921       10.69757       -2.33825
C         15.21755       11.05316       -3.68360
C         16.42795       11.47869       -4.20133
C         16.56886       11.83048       -5.65159
C         17.52845       11.56809       -3.35413
C         17.42763       11.26150       -2.00548
C         18.61302       11.34970       -1.09443
C         16.20555       10.83515       -1.50484
C         12.31955        8.82892       -0.42415
C         11.00526        9.25568       -0.50093
C         10.15473        8.48000        0.28692
C          8.77640        8.64720        0.44866
C          7.94688        9.62472       -0.11829
N          8.15745       10.64432       -0.94400
S          6.74479       11.39556       -1.17678
N          5.80118       10.46727       -0.24387
C          6.56330        9.51785        0.28993
C          6.31803        8.45341        1.16833
S          7.81579        7.60839        1.47279
C          5.10490        8.08002        1.75426
S          5.01930        6.75653        2.90868
C          3.33505        7.03045        3.09176
C          2.26503        6.45709        3.78159
S          1.98387        5.17126        4.88558
C          3.86542        8.68109        1.53989
C          2.86218        8.11070        2.30589
C          1.41895        8.23829        2.51596
C          0.52450        9.09380        1.98115
C          0.80812       10.22391        1.11607
C         -0.04784       10.50564        0.04880
C          0.21394       11.55583       -0.81297
C         -0.68790       11.84981       -1.97364
C          1.33984       12.34348       -0.59192
C          2.18275       12.11145        0.48458
C          3.40219       12.94981        0.71449
C          1.90137       11.05606        1.34037
C          1.08544        7.15999        3.44459
C         -0.03375        6.65972        4.08590
C          0.27131        5.57447        4.90680
C         -0.59146        4.81398        5.69976
C         -0.25982        3.71400        6.49899
N          0.88239        3.08603        6.75239
S          0.56965        1.88764        7.78604
N         -1.02549        2.10776        7.96312
C         -1.38157        3.14134        7.20377
C         -2.59257        3.79934        6.95449
S         -2.30772        5.12019        5.84429
C         -3.84581        3.48540        7.49375
S         -5.26789        4.47863        7.21161
C         -6.19619        3.42740        8.20315
C         -7.52770        3.29081        8.61619
S         -9.02782        4.10780        8.44037
C         -4.11484        2.39500        8.31713
C         -5.43520        2.36141        8.73746
C         -6.32075        1.50651        9.52877
C         -6.07789        0.36131       10.19829
C         -4.79139       -0.27187       10.41816
C         -3.65227        0.47155       10.71428
C         -2.42399       -0.14744       10.89967
C         -1.20897        0.68386       11.17443
C         -2.34879       -1.52866       10.80333
C         -3.47937       -2.29965       10.54889
C         -3.36484       -3.79203       10.46726
C         -4.69496       -1.66485       10.36773
C         -7.63566        2.12994        9.40871
C         -8.92571        1.91040        9.86979
C         -9.81090        2.88944        9.43618
C        -11.18556        2.94646        9.73098
C        -11.92515        2.04395       10.49951
N        -11.63173        0.92510       11.15744
S        -12.99214        0.38634       11.83870
N        -14.01774        1.52148       11.34772
C        -13.33074        2.40256       10.60677
C        -13.64387        3.55567        9.93065
S        -12.24661        4.20284        9.16866
H         23.80432       -1.18222        5.79916
H         25.37347        0.39906        4.44548
H         24.81341        4.00423        1.78427
H         25.69846        0.51326        2.04736
H         27.16555       -1.35538        2.25989
H         28.75626       -1.13628        3.00574
H         28.56405       -0.93934        1.26727
H         29.84028        1.19105        2.80220
H         29.93408        3.86256        4.22392
H         29.49152        4.88367        2.85628
H         30.64226        3.55524        2.64076
H         27.11059        4.46705        2.81218
H         22.34953        4.80679        1.21586
H         16.66275        8.44430       -1.01258
H         12.94429       10.72031       -2.22604
H         14.35569       10.96620       -4.33012
H         15.59856       11.86821       -6.14030
H         17.18151       11.08596       -6.15986
H         17.05737       12.79675       -5.76500
H         18.47693       11.89506       -3.75696
H         19.45118       11.83725       -1.58551
H         18.91727       10.34523       -0.80007
H         18.36239       11.90199       -0.19054
H         16.10177       10.63363       -0.44954
H         10.63001       10.07985       -1.07938
H          3.75693        9.48498        0.83603
H         -0.52271        8.91243        2.19265
H         -0.91024        9.87538       -0.11668
H         -0.16081       11.67975       -2.91196
H         -1.00588       12.89123       -1.95489
H         -1.56992       11.21494       -1.95348
H          1.55145       13.15972       -1.26841
H          3.38595       13.84513        0.09873
H          4.29049       12.37022        0.46239
H          3.47806       13.24002        1.76046
H          2.52181       10.89238        2.20814
H         -1.03907        7.02949        3.98852
H         -3.34933        1.68042        8.55480
H         -6.93602       -0.16435       10.60055
H         -3.73344        1.54121       10.83192
H         -1.37194        1.32487       12.03933
H         -1.00494        1.32331       10.31624
H         -0.33904        0.05905       11.35903
H         -1.39635       -2.02155       10.93962
H         -2.82729       -4.18170       11.33008
H         -2.81069       -4.07736        9.57318
H         -4.34627       -4.25741       10.42616
H         -5.58081       -2.24765       10.15803
H         -9.25412        1.09601       10.48911
H        -14.58710        4.05098        9.83692
