178
d1a7.out	Energy:  -10932.1088140
C         29.46581        0.11116      -11.07504
S         28.33778       -0.58682       -9.96235
C         27.34706        0.80774      -10.09618
C         26.16039        1.30947       -9.51881
S         24.96046        0.83401       -8.39051
C         29.10029        1.34296      -11.52865
C         27.86971        1.75736      -10.98700
C         26.99138        2.92355      -11.00054
C         27.07283        4.09255      -11.66684
C         28.01943        4.45303      -12.70600
C         28.38989        3.54636      -13.69826
C         29.27923        3.90990      -14.69657
C         29.66911        2.94057      -15.77174
C         29.80210        5.19712      -14.69567
C         29.43288        6.12743      -13.73142
C         29.99156        7.51766      -13.77619
C         28.53136        5.75027      -12.75033
C         25.93747        2.59718      -10.03980
C         24.79307        3.18965       -9.53048
C         24.13981        2.37190       -8.61425
C         22.96055        2.66514       -7.89133
C         22.40874        1.75738       -6.95923
N         22.92349        0.56076       -6.67996
S         22.02267       -0.15677       -5.55819
N         20.93150        1.01228       -5.36367
C         21.21874        2.02669       -6.17897
C         22.24138        3.87700       -8.01718
N         22.53759        4.90039       -8.82068
S         21.44510        6.06590       -8.62921
N         20.53615        5.34126       -7.51724
C         21.04889        4.14422       -7.24285
C         20.50000        3.24025       -6.30350
C         19.34600        3.56214       -5.56053
S         18.58230        5.13022       -5.75499
C         17.42010        4.70663       -4.56409
C         16.29326        5.27401       -3.97085
S         15.40745        6.74247       -4.03146
C         18.69713        2.76580       -4.61519
C         17.62112        3.40549       -4.03028
C         16.57011        3.13422       -3.04882
C         16.31915        2.02959       -2.31883
C         17.15014        0.84053       -2.23683
C         18.53392        0.93229       -2.11872
C         19.32205       -0.20824       -2.05664
C         20.81010       -0.07624       -1.94582
C         18.70813       -1.45045       -2.10753
C         17.32432       -1.57062       -2.19157
C         16.69073       -2.92833       -2.23877
C         16.55426       -0.42195       -2.24247
C         15.74949        4.34363       -3.04861
C         14.63999        4.83459       -2.39193
C         14.31244        6.13179       -2.79892
C         13.27392        6.95475       -2.32562
C         12.37555        6.60330       -1.28458
N         12.35669        5.44214       -0.63427
S         11.20105        5.47589        0.48784
N         10.66363        6.96951        0.21111
C         11.36147        7.51389       -0.78293
C         13.06971        8.25200       -2.85298
N         13.77734        8.79707       -3.83932
S         13.22916       10.28405       -4.13127
N         12.06645       10.31016       -3.01574
C         12.05544        9.15005       -2.36403
C         11.17740        8.82066       -1.30485
C         10.24175        9.75176       -0.81727
S         10.16713       11.36207       -1.51446
C          8.94658       11.78915       -0.38531
C          8.15544       12.89689       -0.08863
S          7.93068       14.50635       -0.64218
C          9.33513        9.58246        0.23283
C          8.61605       10.72928        0.50362
C          7.56580       11.19111        1.41200
C          6.90564       10.54409        2.39287
C          7.18042        9.20776        2.89151
C          8.48329        8.76864        3.10782
C          8.73608        7.48559        3.57245
C         10.15019        7.03801        3.78405
C          7.66559        6.64291        3.82949
C          6.35188        7.06811        3.65470
C          5.21792        6.13624        3.95955
C          6.11942        8.35312        3.19780
C          7.30350       12.56747        0.99695
C          6.50215       13.62217        1.38109
C          6.71324       14.76225        0.59920
C          6.09444       16.02067        0.71820
C          5.16643       16.36767        1.73381
N          4.74126       15.56317        2.70564
S          3.72098       16.36730        3.65774
N          3.76345       17.78116        2.88901
C          4.57908       17.69149        1.83961
C          6.38345       17.07054       -0.18521
N          7.22177       16.98484       -1.21529
S          7.25787       18.39579       -1.99198
N          6.21165       19.18758       -1.05820
C          5.78488       18.37809       -0.09089
C          4.86693       18.73448        0.92295
C          4.31374       20.02942        0.99352
S          4.75697       21.24591       -0.19299
C          3.73989       22.38187        0.59618
C          3.30925       23.69994        0.41042
S          3.56040       24.99959       -0.68194
C          3.41620       20.51565        1.94369
C          3.10335       21.84765        1.74619
C          2.24564       22.87732        2.33252
C          1.45678       22.84363        3.42533
C          1.36861       21.76905        4.39772
C          2.50403       21.09051        4.83192
C          2.40929       20.05150        5.74674
C          3.64778       19.32331        6.17199
C          1.16089       19.70533        6.24052
C          0.01429       20.39367        5.85466
C         -1.31717       20.00584        6.42379
C          0.12877       21.42748        4.94238
C          2.38820       24.02098        1.43613
C          1.90196       25.31091        1.32912
C          2.43078       25.98624        0.23124
C          2.15197       27.31053       -0.18285
C          2.75998       27.86875       -1.32779
N          3.62999       27.23985       -2.11719
S          4.07267       28.23224       -3.30263
N          3.19636       29.50865       -2.89095
C          2.49683       29.22133       -1.78260
C          1.26224       28.18003        0.48964
N          0.56138       27.90543        1.59100
S         -0.31207       29.19489        1.99351
N          0.13630       30.17479        0.80999
C          1.01080       29.53488        0.02001
C          1.62049       30.06323       -1.11130
H         30.34689       -0.44550      -11.32657
H         29.70076        1.92105      -12.20702
H         26.35927        4.86252      -11.39798
H         27.94601        2.56204      -13.70351
H         29.30208        1.94196      -15.54844
H         30.75206        2.90199      -15.87769
H         29.25292        3.25431      -16.72884
H         30.50126        5.48508      -15.46844
H         31.07587        7.49161      -13.86943
H         29.73016        8.07245      -12.87879
H         29.59626        8.05284      -14.63953
H         28.23473        6.45998      -11.99102
H         24.41710        4.16474       -9.77784
H         19.03414        1.76738       -4.40903
H         15.39785        2.00640       -1.74908
H         18.99562        1.90529       -2.04570
H         21.29136       -1.05056       -1.94264
H         21.07690        0.44834       -1.02945
H         21.19301        0.50174       -2.78506
H         19.31254       -2.34600       -2.06892
H         17.12711       -3.58243       -1.48619
H         16.85817       -3.38462       -3.21461
H         15.61858       -2.86485       -2.07083
H         15.47850       -0.49759       -2.31585
H         14.06113        4.32445       -1.64447
H          9.24466        8.63849        0.73638
H          6.06814       11.05724        2.85041
H          9.30553        9.44736        2.93962
H         10.61066        7.60953        4.58938
H         10.73265        7.20563        2.87999
H         10.19310        5.98237        4.03944
H          7.85021        5.63850        4.18449
H          5.24118        5.28102        3.28474
H          4.25985        6.63753        3.84883
H          5.29920        5.75827        4.97771
H          5.10545        8.69643        3.04820
H          5.78564       13.62277        2.18138
H          3.02985       19.87960        2.71746
H          0.80892       23.69466        3.59829
H          3.47426       21.39665        4.47169
H          4.34164       20.00699        6.65953
H          4.14847       18.90572        5.29978
H          3.41170       18.51617        6.86067
H          1.07338       18.89381        6.94958
H         -1.27306       19.97717        7.51139
H         -1.60000       19.01253        6.07605
H         -2.08986       20.70882        6.12353
H         -0.75338       21.96479        4.62390
H          1.19517       25.78253        1.98639
H          1.42319       31.06618       -1.44533
