158
d1a8.out	Energy:   -8164.1351682
C         17.18678      -14.98854        2.72970
S         18.28487      -13.92128        1.91955
C         17.17152      -12.63260        2.11564
C         17.05239      -11.27248        1.73502
S         17.96668      -10.07312        0.92083
C         16.03491      -14.38562        3.13238
C         16.01397      -13.01733        2.79817
C         15.10660      -11.87339        2.87042
C         13.87757      -11.75988        3.40980
C         13.19145      -12.75000        4.22204
C         13.86758      -13.45605        5.21782
C         13.20772      -14.38809        5.99965
C         13.92900      -15.13909        7.07803
C         11.85365      -14.61723        5.77627
C         11.15350      -13.91491        4.80649
C          9.69122      -14.15455        4.57952
C         11.82823      -12.97164        4.04452
C         15.80747      -10.80288        2.16095
C         15.59485       -9.46332        1.83036
C         16.66442       -8.91479        1.15247
C         16.79953       -7.59214        0.65772
C         17.87207       -7.03000        0.00252
C         17.67595       -5.69302       -0.34534
C         16.44840       -5.19927        0.03570
S         15.51108       -6.42971        0.84347
C         15.92340       -3.89610       -0.15463
S         16.85226       -2.68908       -1.03089
C         15.58952       -1.55168       -0.80351
C         15.34893       -0.18732       -1.07001
S         16.13578        1.13959       -1.81456
C         14.70477       -3.40921        0.27191
C         14.49316       -2.08174       -0.10640
C         13.49547       -1.02554        0.07276
C         12.29499       -1.05238        0.68421
C         11.62116       -2.22050        1.22318
C         10.92449       -2.12055        2.42925
C         10.29345       -3.22238        2.97888
C          9.56498       -3.12729        4.28548
C         10.34658       -4.43625        2.30040
C         10.99809       -4.55370        1.08165
C         11.05595       -5.86305        0.35461
C         11.62499       -3.43724        0.54643
C         14.10110        0.15848       -0.53560
C         13.78449        1.50234       -0.73500
C         14.78356        2.18415       -1.40556
C         14.83166        3.56193       -1.74533
C         13.88166        4.54019       -1.53609
C         14.27986        5.80642       -1.96740
C         15.54390        5.82983       -2.51445
S         16.24770        4.23499       -2.50549
C         16.28706        6.92293       -3.02635
S         15.61287        8.54467       -3.08433
C         17.08201        9.13511       -3.74958
C         17.65667       10.37612       -4.10177
S         17.23343       12.03795       -4.14499
C         17.57774        6.87793       -3.51246
C         18.03501        8.12259       -3.94396
C         19.26504        8.72165       -4.45979
C         20.43770        8.15092       -4.79997
C         20.71904        6.72796       -4.85697
C         19.78703        5.82617       -5.36604
C         20.04808        4.46433       -5.38472
C         19.01012        3.50321       -5.87845
C         21.26905        4.01034       -4.90573
C         22.23474        4.89260       -4.43254
C         23.55035        4.36840       -3.94161
C         21.95490        6.24813       -4.42035
C         18.97993       10.15311       -4.50649
C         19.64794       11.32846       -4.84366
C         18.85087       12.44860       -4.69493
C         19.22591       13.80201       -4.90198
C         20.48062       14.29666       -5.19436
C         20.52133       15.68619       -5.30065
C         19.30009       16.29004       -5.09652
S         18.06991       15.09905       -4.76951
C         18.98108       17.67094       -5.12379
S         20.23195       18.86853       -5.42229
C         19.06673       20.11993       -5.28889
C         19.03527       21.53207       -5.29272
S         20.11985       22.84710       -5.47966
C         17.74053       18.24585       -4.94053
C         17.77046       19.63700       -5.05553
C         16.85932       20.77516       -4.92918
C         15.52669       20.81100       -4.73011
C         14.62107       19.67658       -4.71565
C         13.56396       19.64778       -3.80427
C         12.69910       18.56839       -3.75308
C         11.57484       18.52201       -2.76284
C         12.88763       17.51258       -4.63888
C         13.90572       17.53376       -5.58182
C         14.10581       16.38515       -6.52308
C         14.76063       18.62520       -5.61915
C         17.72074       21.94868       -5.05416
C         17.59522       23.33944       -5.02795
C         18.79857       23.97920       -5.23441
C         19.05304       25.37950       -5.25705
C         20.24766       26.02712       -5.44807
C         20.13052       27.42813       -5.40471
C         18.85644       27.84372       -5.18142
S         17.76227       26.52701       -5.01872
H         17.47225      -16.01391        2.85698
H         15.24088      -14.90948        3.63248
H         13.33103      -10.84312        3.22248
H         14.91165      -13.24430        5.39486
H         14.99926      -14.95352        7.03298
H         13.75353      -16.20941        6.98124
H         13.56626      -14.83040        8.05829
H         11.33758      -15.35050        6.38033
H          9.31717      -14.93584        5.23609
H          9.51150      -14.45130        3.54695
H          9.12484      -13.24284        4.76649
H         11.29518      -12.41896        3.28368
H         14.71157       -8.89411        2.05974
H         18.77037       -7.58231       -0.21041
H         18.40410       -5.09072       -0.85941
H         14.02637       -4.01078        0.84912
H         11.77709       -0.10894        0.81071
H         10.90255       -1.17291        2.94884
H          9.51817       -2.09837        4.63268
H         10.07192       -3.72464        5.04297
H          8.55032       -3.50959        4.18491
H          9.85805       -5.30008        2.72943
H         10.35614       -6.57809        0.77963
H         12.06069       -6.28208        0.42294
H         10.82493       -5.72709       -0.70014
H         12.09947       -3.50293       -0.42116
H         12.88030        1.97820       -0.40236
H         12.92836        4.34111       -1.08119
H         13.67304        6.69075       -1.88192
H         18.14785        5.96676       -3.52061
H         21.26489        8.80866       -5.03930
H         18.86002        6.20009       -5.77421
H         18.40409        3.95519       -6.66033
H         18.34674        3.22497       -5.05801
H         19.46867        2.59564       -6.26337
H         21.48049        2.95027       -4.91001
H         24.02223        3.75075       -4.70431
H         23.40209        3.74924       -3.05739
H         24.22398        5.18190       -3.68480
H         22.68890        6.94637       -4.04319
H         20.66765       11.38092       -5.17768
H         21.34353       13.66765       -5.31531
H         21.41272       16.24846       -5.51708
H         16.87030       17.65550       -4.71773
H         15.07483       21.77895       -4.54773
H         13.43916       20.47100       -3.11494
H         11.50573       19.45311       -2.20632
H         11.72896       17.70692       -2.05638
H         10.62766       18.34672       -3.27083
H         12.21814       16.66477       -4.59855
H         13.17307       15.85369       -6.69558
H         14.82255       15.68108       -6.09763
H         14.50076       16.72921       -7.47630
H         15.52873       18.67808       -6.37601
H         16.68123       23.88088       -4.85968
H         21.17260       25.50349       -5.61296
H         20.96056       28.09960       -5.53359
H         18.48364       28.84517       -5.10086
