206
d3a5.out	Energy:  -10999.3382902
C         24.97667       -2.64141       12.02348
S         23.61803       -1.56656       12.04612
C         23.48935       -1.69276       10.34226
C         22.71185       -1.12914        9.30300
S         21.39933       -0.04704        9.09680
C         25.30773       -3.07770       10.77629
C         24.44963       -2.55264        9.79176
C         24.29481       -2.55888        8.33924
C         24.97994       -3.20570        7.37630
C         25.99440       -4.22851        7.55830
C         25.84711       -5.23534        8.51561
C         26.80663       -6.21581        8.65871
C         27.93295       -6.20348        7.84265
C         28.96713       -7.27192        8.03628
F         28.43913       -8.51015        7.98784
F         29.94564       -7.24341        7.12123
F         29.57259       -7.18023        9.23830
C         28.08707       -5.22225        6.87213
C         27.11588       -4.25253        6.72603
C         23.19785       -1.62303        8.08320
C         22.50392       -1.13021        6.98767
C         21.48924       -0.25294        7.35020
C         20.58481        0.44803        6.50833
C         19.62230        1.31396        7.06405
N         19.47849        1.52965        8.37001
S         18.33135        2.59759        8.69460
N         17.94211        2.84483        7.06426
C         18.72226        2.08048        6.24806
C         20.56770        0.34267        5.08523
N         21.45450       -0.45761        4.46938
C         21.38312       -0.64763        3.17393
C         22.41807       -1.52027        2.54336
C         20.34337       -0.05538        2.42044
C         20.11095       -0.41314        0.99011
N         19.53389        0.81717        2.97773
C         19.63271        1.07221        4.28976
C         18.72830        2.02621        4.86469
C         17.90895        2.86459        4.03682
S         16.32674        3.43254        4.58020
C         16.13295        4.34266        3.14162
C         15.20846        5.25916        2.61584
S         13.69682        5.98551        3.01855
C         18.21509        3.35752        2.78456
C         17.22653        4.19585        2.26640
C         17.01210        5.08345        1.12295
C         17.80058        5.39943        0.07777
C         19.06748        4.79249       -0.28741
C         19.25424        3.41025       -0.24113
C         20.45905        2.85383       -0.61691
C         21.50357        3.67364       -1.02469
C         22.80776        3.05698       -1.43169
F         22.84420        2.75464       -2.74678
F         23.86181        3.85593       -1.20660
F         23.06061        1.90376       -0.78553
C         21.32849        5.05025       -1.09967
C         20.11253        5.59847       -0.74741
C         15.72617        5.72789        1.39341
C         14.90371        6.66112        0.78829
C         13.75814        6.92265        1.53682
C         12.72302        7.83467        1.23521
C         12.68659        8.63880        0.07592
N         13.59876        8.63501       -0.89053
S         13.26852        9.69554       -2.04867
N         11.84422       10.23137       -1.31046
C         11.61791        9.58522       -0.13000
C         11.63702        8.00342        2.13675
N         11.64416        7.24764        3.24187
C         10.65958        7.32419        4.10815
C         10.73640        6.47277        5.32927
C          9.57573        8.19314        3.85406
C          8.39472        8.26456        4.76463
N          9.56843        8.97283        2.79285
C         10.58024        8.92896        1.91875
C         10.57295        9.78701        0.76242
C          9.55734       10.78475        0.59485
S          9.20405       11.53038       -0.97330
C          8.01278       12.53661       -0.26357
C          7.10143       13.52312       -0.66852
S          6.64152       14.37405       -2.08699
C          8.74554       11.31455        1.57997
C          7.88800       12.31008        1.11991
C          6.83854       13.18757        1.63651
C          6.32333       13.29791        2.87593
C          6.81082       12.64334        4.07877
C          8.17518       12.58402        4.37008
C          8.62622       11.96886        5.52013
C          7.71194       11.40012        6.39827
C          8.18864       10.74730        7.66051
F          8.20301       11.59890        8.70552
F          7.41667        9.71297        8.03713
F          9.43870       10.26090        7.56263
C          6.34791       11.47513        6.14028
C          5.90493       12.10121        4.99355
C          6.37047       13.93074        0.46574
C          5.46262       14.93578        0.18440
C          5.47537       15.31136       -1.15753
C          4.71989       16.32103       -1.79990
C          4.86725       16.54011       -3.18467
N          5.66481       15.81474       -3.96253
S          5.60087       16.26798       -5.50031
N          4.47992       17.50414       -5.20169
C          4.13880       17.56292       -3.88266
C          3.79747       17.18781       -1.13628
N          3.56422       17.01469        0.17462
C          2.77421       17.83913        0.82357
C          2.52793       17.57056        2.27163
C          2.19687       18.94111        0.15878
C          1.38725       19.97053        0.87556
N          2.36272       19.09226       -1.13675
C          3.11907       18.23376       -1.83069
C          3.25389       18.42783       -3.25414
C          2.52537       19.45396       -3.93755
S          2.99694       20.02628       -5.54783
C          1.70936       21.15703       -5.56229
C          1.22471       22.17290       -6.39705
S          1.54642       22.87138       -7.93995
C          1.41607       20.14464       -3.48278
C          0.94055       21.09211       -4.38320
C         -0.09541       22.12109       -4.45452
C         -1.04188       22.47865       -3.56492
C         -1.37698       21.79619       -2.32744
C         -1.68666       22.53946       -1.18557
C         -2.01138       21.91294       -0.00021
C         -2.05015       20.52442        0.05371
C         -2.43373       19.84238        1.33220
F         -2.06334       20.53162        2.42480
F         -3.76560       19.66322        1.43949
F         -1.88553       18.62050        1.46030
C         -1.78443       19.76869       -1.08193
C         -1.44999       20.40292       -2.26080
C          0.13931       22.78792       -5.73547
C         -0.41759       23.81552       -6.47170
C          0.22438       24.00153       -7.69645
C         -0.07639       24.95492       -8.68975
C         -1.10797       25.91834       -8.57987
N         -1.92964       26.07053       -7.55159
S         -2.97864       27.27231       -7.77090
N         -2.37237       27.67461       -9.31182
C         -1.33315       26.85355       -9.65793
C          0.68427       24.98136       -9.89464
N          1.66671       24.08422      -10.02774
C          2.39389       24.06678      -11.12464
C          3.47585       23.04296      -11.21710
C          2.13577       24.99363      -12.16069
C          2.93659       24.99916      -13.42147
N          1.17560       25.88977      -12.05408
C          0.43219       25.91428      -10.93851
C         -0.60142       26.86954      -10.80700
H         25.45296       -2.88509       12.95223
H         26.13974       -3.73153       10.58765
H         24.76628       -2.93785        6.34910
H         24.95761       -5.25812        9.12540
H         26.68841       -6.99683        9.39481
H         28.95795       -5.22561        6.23483
H         27.23168       -3.48946        5.97101
H         22.69227       -1.36245        5.95745
H         17.27113        3.52097        6.73623
H         22.94226       -0.97624        1.75884
H         21.95376       -2.39704        2.09399
H         23.13280       -1.84148        3.29541
H         21.00337       -0.21741        0.39703
H         19.26955        0.15621        0.60590
H         19.88612       -1.47626        0.90728
H         19.14928        3.12750        2.30884
H         17.47592        6.21571       -0.55584
H         18.43764        2.77494        0.06329
H         20.59670        1.78561       -0.59485
H         22.13999        5.67942       -1.43222
H         19.97003        6.66711       -0.80664
H         15.08775        7.15719       -0.14579
H         11.30912       11.01537       -1.64544
H         11.65401        5.89265        5.30466
H          9.88194        5.79947        5.37699
H         10.72327        7.09560        6.22270
H          7.88342        7.30323        4.79345
H          7.70356        9.02406        4.40935
H          8.71135        8.50166        5.77803
H          8.80203       10.95783        2.58938
H          5.44513       13.91886        3.00050
H          8.87886       13.05204        3.70005
H          9.68237       11.92424        5.73805
H          5.64517       11.04204        6.83573
H          4.84638       12.15744        4.78887
H          4.80164       15.41318        0.88175
H          4.03785       18.03671       -5.93238
H          2.88273       18.40334        2.87725
H          3.04675       16.66435        2.57042
H          1.46107       17.45190        2.45551
H          0.54269       19.50427        1.37875
H          1.02669       20.71240        0.16806
H          1.99371       20.46517        1.63317
H          1.00646       19.94604       -2.51225
H         -1.61088       23.37579       -3.77500
H         -1.65293       23.61772       -1.22934
H         -2.23351       22.49162        0.88341
H         -1.83700       18.69158       -1.03652
H         -1.27281       19.82149       -3.15153
H         -1.24738       24.43063       -6.17791
H         -2.73300       28.41409       -9.88653
H          3.48665       22.45261      -10.30561
H          4.44425       23.52363      -11.34863
H          3.30712       22.38775      -12.07067
H          2.85292       24.03929      -13.92927
H          3.98922       25.17357      -13.20300
H          2.56969       25.78516      -14.07489
H         -0.78045       27.57189      -11.60346
