162
d4a6.out	Energy:  -12570.6696441
C         23.58884       18.65542       -4.14759
S         21.90544       18.37984       -3.85923
C         22.25615       16.78846       -3.33773
C         21.55966       15.68353       -2.79095
S         19.95848       15.23609       -2.38289
C         24.37646       17.58035       -3.86595
C         23.62232       16.48159       -3.40999
C         23.82700       15.12697       -2.90299
C         24.94053       14.38137       -2.75744
C         26.27365       14.69619       -3.23301
C         27.38831       14.33399       -2.47241
C         28.66542       14.62782       -2.91826
C         29.85453       14.21590       -2.09153
F         29.58111       14.17322       -0.78001
F         30.29018       12.98691       -2.42579
F         30.89876       15.04075       -2.24130
C         28.87479       15.26143       -4.13677
C         27.76714       15.58533       -4.90620
C         27.92934       16.27832       -6.23241
F         29.19677       16.33875       -6.65021
F         27.22656       15.67876       -7.20651
F         27.48151       17.54845       -6.17874
C         26.48124       15.30719       -4.46993
C         22.49190       14.67781       -2.49798
C         21.91267       13.54235       -1.94718
C         20.53574       13.67837       -1.81084
C         19.66418       12.71215       -1.28268
C         20.00384       11.44153       -0.80344
N         21.14852       10.76939       -0.68844
S         20.81691        9.32597       -0.05207
N         19.21994        9.47721        0.11818
C         18.87191       10.68191       -0.33103
C         17.65266       11.36312       -0.44832
S         17.94271       12.93813       -1.13458
C         16.38972       10.86110       -0.10983
S         14.89573       11.75617       -0.33529
C         13.99945       10.41540        0.25290
C         12.66406       10.08798        0.53656
S         11.10600       10.80262        0.43911
C         16.16952        9.58701        0.40623
C         14.82432        9.31763        0.58939
C         13.98301        8.23291        1.09470
C         14.32708        7.01314        1.54883
C         15.66442        6.44173        1.51249
C         16.15841        5.74486        2.61484
C         17.44090        5.21955        2.59210
C         17.96622        4.51939        3.81709
F         17.01422        3.82365        4.45589
F         18.95485        3.66018        3.54360
F         18.45911        5.39318        4.71529
C         18.25521        5.36095        1.47778
C         17.74554        6.02268        0.36809
C         18.59616        6.12812       -0.86905
F         19.89581        6.30804       -0.58471
F         18.52866        5.01042       -1.61612
F         18.23562        7.13696       -1.67122
C         16.46540        6.54971        0.37410
C         12.62694        8.77568        1.05816
C         11.34574        8.35318        1.36183
C         10.39282        9.33363        1.09020
C          9.01069        9.24914        1.28366
C          8.03814       10.23280        1.07106
N          8.08390       11.48938        0.63936
S          6.57966       12.06819        0.63199
N          5.79811       10.76461        1.18149
C          6.69773        9.80507        1.38767
C          6.62533        8.47730        1.83120
S          8.23109        7.79588        1.86549
C          5.46816        7.76858        2.16852
S          5.48137        6.06380        2.59216
C          3.77492        6.09242        2.76573
C          2.75016        5.21952        3.15784
S          2.56341        3.58076        3.62915
C          4.18286        8.30605        2.17467
C          3.21975        7.36335        2.49028
C          1.77191        7.29703        2.69874
C          0.83509        8.25204        2.54442
C          1.06122        9.57516        1.98455
C          1.85866        9.75087        0.85174
C          2.08817       11.01937        0.34774
C          2.94045       11.19864       -0.87991
F          3.77271       10.17311       -1.09701
F          2.19104       11.31666       -1.99266
F          3.69754       12.30518       -0.82175
C          1.51568       12.13995        0.93592
C          0.68673       11.95694        2.03329
C          0.05623       13.15066        2.69991
F         -0.06702       14.20131        1.88050
F         -1.17009       12.88293        3.17277
F          0.78067       13.57235        3.75345
C          0.45348       10.69369        2.55430
C          1.52897        5.92986        3.15525
C          0.45403        5.14901        3.54352
C          0.83742        3.84271        3.84132
C          0.03731        2.78064        4.27438
C          0.43464        1.46062        4.51432
N          1.59601        0.82183        4.40891
S          1.35749       -0.71459        4.83190
N         -0.21909       -0.64636        5.17758
C         -0.63206        0.60238        4.96333
C         -1.86476        1.25883        5.07813
S         -1.67066        2.92989        4.61495
C         -3.07226        0.67905        5.48644
S         -4.58546        1.56113        5.60915
C         -5.38315        0.12780        6.11229
C         -6.65955       -0.26534        6.55580
S         -8.20492        0.42967        6.81995
C         -3.21469       -0.66319        5.82594
C         -4.52054       -0.98828        6.15394
C         -5.27948       -2.15423        6.61181
C         -4.88245       -3.42943        6.78628
C         -3.58495       -3.97426        6.42163
C         -2.94821       -4.88855        7.26111
C         -1.69820       -5.38832        6.93100
C         -1.04517       -6.38677        7.84943
F         -1.28282       -6.12371        9.14316
F         -1.50216       -7.63413        7.63105
F          0.28399       -6.43914        7.70423
C         -1.06096       -5.01175        5.75755
C         -1.71464       -4.13023        4.90607
C         -1.05370       -3.75095        3.60801
F          0.27336       -3.59616        3.73527
F         -1.23128       -4.69342        2.66306
F         -1.52563       -2.60951        3.09177
C         -2.96543       -3.62699        5.21921
C         -6.61622       -1.63424        6.88629
C         -7.83449       -2.11335        7.34932
C         -8.80506       -1.12204        7.38204
C        -10.14305       -1.23071        7.80613
C        -11.11195       -0.23024        7.84610
N        -11.11854        1.06094        7.52353
S        -12.59384        1.63104        7.82600
N        -13.30132        0.29899        8.37461
C        -12.39537       -0.68947        8.34950
C        -12.39219       -2.02129        8.68431
S        -10.84693       -2.71097        8.39183
H         23.89770       19.61302       -4.51614
H         25.44548       17.60459       -3.97133
H         24.84664       13.44638       -2.22060
H         27.25076       13.84131       -1.52151
H         29.87289       15.48765       -4.47767
H         25.63764       15.53510       -5.10294
H         22.41851       12.64502       -1.64225
H         16.99558        8.93722        0.62398
H         13.56131        6.40085        2.00620
H         15.54559        5.62717        3.49607
H         19.25542        4.95687        1.46857
H         16.07668        7.03437       -0.50780
H         11.07409        7.39463        1.76613
H          4.02723        9.34684        1.96249
H         -0.17316        8.04109        2.87504
H          2.28598        8.89024        0.36161
H          1.70162       13.12652        0.54105
H         -0.18970       10.57796        3.41390
H         -0.56858        5.47196        3.62128
H         -2.36376       -1.31746        5.82835
H         -5.57024       -4.11883        7.25778
H         -3.41940       -5.18977        8.18485
H         -0.08315       -5.39497        5.51092
H         -3.47244       -2.97329        4.52716
H         -8.03819       -3.12187        7.66129
H        -13.18428       -2.62406        9.07590
