378
d5a12.out	Energy:  -11332.3124587
C         -0.54981       31.64678       -6.23733
S         -0.77418       29.99022       -6.67254
C         -2.22886       29.88201       -5.69684
C         -3.01792       28.75877       -5.47061
O         -2.90880       27.51734       -6.01067
C         -1.65811       26.92604       -6.29743
C         -0.96643       26.32525       -5.06090
C         -0.48273       27.40193       -4.09279
C         -1.89842       25.34578       -4.35171
C         -4.13186       28.93952       -4.62736
C         -5.07253       27.95454       -4.23067
C         -1.51490       32.11688       -5.42628
C         -2.51336       31.14454       -5.10849
C         -3.65345       31.32693       -4.31279
O         -3.98461       32.50379       -3.70290
C         -4.19624       33.64878       -4.51493
C         -5.68702       33.92023       -4.77996
C         -6.28888       32.86563       -5.70545
C         -6.45693       33.99335       -3.46507
C         -4.42819       30.20200       -4.07713
S         -5.85432       30.14152       -3.08579
C         -6.05115       28.42388       -3.40759
C         -7.14902       27.69950       -2.81155
C         -8.20741       28.39948       -2.21983
C         -9.23323       27.68893       -1.64284
N        -10.38818       28.16813       -1.05824
C        -10.74203       29.54790       -0.83949
C        -10.35391       30.04103        0.56309
C         -8.84108       30.02775        0.76217
C        -10.91129       31.44515        0.77849
C        -11.20624       27.13544       -0.67820
O        -12.27471       27.30635       -0.12697
C         -7.17228       26.29965       -2.81260
C         -8.20141       25.59079       -2.22722
C         -9.24664       26.27399       -1.61420
C        -10.48974       25.86001       -1.00614
C        -10.95130       24.60387       -0.71781
C        -12.28621       24.13888       -0.41862
C        -13.54184       24.73838       -0.39563
C        -14.66276       23.96109       -0.17575
C        -10.08182       23.38392       -0.62875
O         -8.87416       23.28619       -0.70631
N        -10.90036       22.32647       -0.32788
C        -10.43017       20.97269       -0.19517
C        -10.74883       20.11236       -1.42849
C        -10.02211       20.65075       -2.65706
C        -10.35448       18.66393       -1.15459
C        -12.21254       22.73945       -0.22211
C        -13.32118       21.96408        0.01137
C        -14.58109       22.58011        0.03211
C        -15.76659       21.77667        0.21657
S        -17.36975       22.47280        0.02913
C        -18.11093       20.91879        0.27231
C        -19.46942       20.64795        0.21310
O        -20.32259       21.67834       -0.05148
C        -21.43765       21.87321        0.81022
C        -22.70431       22.13350       -0.01116
C        -23.92627       22.15627        0.90219
C        -22.56376       23.44361       -0.78016
C        -19.84875       19.30142        0.35063
C        -21.15230       18.75148        0.20778
C        -15.82982       20.43981        0.48109
C        -17.14526       19.92008        0.50595
C        -17.51648       18.57518        0.70141
O        -16.48854       17.74172        1.01479
C        -16.45997       16.38995        0.60712
C        -16.01258       16.19714       -0.85295
C        -17.05962       16.69655       -1.84526
C        -14.67154       16.88543       -1.09627
C        -18.87325       18.29649        0.61098
S        -19.64111       16.72893        0.72041
C        -21.21689       17.40114        0.35445
C        -22.34460       16.51517        0.18686
C        -22.10618       15.15203       -0.02887
C        -23.17637       14.32055       -0.24766
N        -23.16115       12.97348       -0.54021
C        -21.98703       12.14936       -0.66024
C        -21.22389       12.38920       -1.97248
C        -19.94469       11.55746       -1.97225
C        -22.09916       12.03941       -3.17218
C        -24.43182       12.51293       -0.77261
O        -24.68801       11.34995       -1.00359
C        -23.66288       16.98709        0.19554
C        -24.73794       16.14141       -0.00095
C        -24.51191       14.78655       -0.22259
C        -25.36188       13.67330       -0.56585
C        -26.72428       13.57472       -0.62923
C        -27.53834       12.54675       -1.23022
C        -27.26926       11.52748       -2.13565
C        -28.30495       10.73386       -2.58369
C        -27.68782       14.47928        0.07634
O        -27.47327       15.48210        0.72557
N        -28.93136       13.91012       -0.05047
C        -30.12558       14.50180        0.49386
C        -30.97026       15.22564       -0.56663
C        -32.24648       15.75526        0.08081
C        -30.17440       16.36092       -1.20347
C        -28.87844       12.78161       -0.84493
C        -29.90959       11.96677       -1.25438
C        -29.61771       10.91956       -2.13570
C        -30.65476       10.01956       -2.58851
S        -32.04543        9.67263       -1.58046
C        -32.66892        8.50231       -2.73043
C        -33.77941        7.67252       -2.60954
O        -34.63899        7.55245       -1.56651
C        -34.97786        8.65100       -0.74625
C        -36.06434        9.55210       -1.35910
C        -35.55639       10.30803       -2.58438
C        -37.30034        8.72773       -1.71019
C        -34.00335        6.76357       -3.66543
C        -35.01292        5.76872       -3.74411
C        -30.69588        9.31363       -3.74764
C        -31.81959        8.45625       -3.86717
C        -32.08643        7.59857       -4.94128
O        -31.26836        7.54388       -6.04308
C        -31.51973        8.55441       -7.00992
C        -30.43351        8.47985       -8.08241
C        -30.77477        9.41372       -9.23935
C        -29.07287        8.82356       -7.48273
C        -33.17927        6.76308       -4.81202
S        -33.69829        5.58176       -5.97150
C        -34.98451        5.04583       -4.89814
C        -35.80949        3.92944       -5.29960
C        -35.89191        3.58730       -6.65417
C        -36.64140        2.49535       -7.01956
N        -36.83985        1.98163       -8.28449
C        -36.41415        2.55712       -9.53533
C        -37.49963        3.43055      -10.18331
C        -37.81823        4.65264       -9.32695
C        -37.04398        3.85483      -11.57649
C        -37.58600        0.83474       -8.22749
O        -37.96419        0.24583       -9.22005
C        -36.49349        3.15409       -4.35712
C        -37.22590        2.04266       -4.72719
C        -37.30904        1.68460       -6.06939
C        -37.86779        0.55492       -6.78032
C        -38.47557       -0.58012       -6.31288
C        -38.68176       -1.85679       -6.96179
C        -38.32422       -2.37817       -8.20050
C        -38.58523       -3.70287       -8.48261
C        -39.05416       -0.74879       -4.94150
O        -39.18791        0.06232       -4.04675
N        -39.51151       -2.03779       -4.84578
C        -40.14904       -2.52865       -3.65028
C        -41.65013       -2.20347       -3.60230
C        -42.41790       -2.94971       -4.68914
C        -42.20186       -2.54914       -2.22205
C        -39.28704       -2.72612       -6.02239
C        -39.54758       -4.04818       -6.29946
C        -39.20150       -4.55483       -7.56010
C        -39.47323       -5.92861       -7.91833
S        -38.87954       -6.56661       -9.43742
C        -39.60091       -8.10965       -9.10255
C        -39.48578       -9.17086       -9.99286
O        -38.71330       -8.88752      -11.07707
C        -38.79664       -9.61770      -12.28130
C        -40.17957       -9.54708      -12.94206
C        -40.51463       -8.09906      -13.28990
C        -40.20564      -10.43045      -14.18552
C        -40.12752      -10.36579       -9.62592
C        -40.25571      -11.62078      -10.28280
C        -40.17472       -6.86516       -7.21609
C        -40.27735       -8.12954       -7.85854
C        -40.91794       -9.32622       -7.49048
O        -41.58106       -9.63284       -6.33692
C        -42.32141       -8.66179       -5.62845
C        -43.37692       -7.95052       -6.48382
C        -44.39464       -8.96212       -7.00410
C        -44.05847       -6.85850       -5.66562
C        -40.82336      -10.37915       -8.38983
S        -41.58108      -11.91218       -8.07757
C        -41.00056      -12.53997       -9.60681
C        -41.32973      -13.88479      -10.02131
C        -41.80795      -14.80468       -9.08099
C        -42.10216      -16.08291       -9.49283
N        -42.60846      -17.12810       -8.74705
C        -42.85687      -17.14156       -7.32733
C        -41.68329      -17.73148       -6.52996
C        -40.42884      -16.87316       -6.66454
C        -42.08480      -17.86913       -5.06429
C        -42.83882      -18.22337       -9.53725
O        -43.24895      -19.27815       -9.09772
C        -41.19604      -14.28343      -11.35622
C        -41.49953      -15.56621      -11.76648
C        -41.94278      -16.49958      -10.83595
C        -42.41859      -17.86227      -10.93324
C        -42.46894      -18.70707      -12.00731
C        -43.20904      -19.94065      -12.19564
C        -44.17348      -20.60381      -11.44772
C        -44.77322      -21.73878      -11.97140
C        -41.68188      -18.53034      -13.27279
O        -40.87790      -17.67079      -13.57451
N        -41.96825      -19.59950      -14.07951
C        -41.35023      -19.80454      -15.36313
C        -40.29945      -20.92514      -15.34466
C        -39.74378      -21.11916      -16.75257
C        -39.18124      -20.59356      -14.36118
C        -42.89209      -20.43370      -13.48146
C        -43.49002      -21.56148      -14.00488
C        -44.43510      -22.21676      -13.22707
H          0.30847       32.16394       -6.61897
H         -0.98268       27.62282       -6.80172
H         -1.90444       26.12085       -6.99659
H         -0.09398       25.77938       -5.43780
H          0.16725       28.11244       -4.59875
H          0.07613       26.94562       -3.27899
H         -1.32372       27.94282       -3.66351
H         -1.38803       24.87711       -3.51397
H         -2.23068       24.56780       -5.03517
H         -2.77219       25.86963       -3.97222
H         -5.01129       26.94087       -4.58037
H         -1.51498       33.11476       -5.02680
H         -3.67579       33.55174       -5.47296
H         -3.76920       34.49102       -3.95964
H         -5.73596       34.89424       -5.28149
H         -5.70964       32.77881       -6.62309
H         -7.30891       33.13589       -5.96829
H         -6.31102       31.89599       -5.21600
H         -6.35753       33.05310       -2.92831
H         -7.51114       34.18140       -3.65269
H         -6.06654       34.79110       -2.83758
H         -8.20456       29.47813       -2.23288
H        -11.82858       29.61923       -0.94977
H        -10.26447       30.16203       -1.60607
H        -10.81365       29.36207        1.28887
H         -8.35604       30.70171        0.05858
H         -8.43561       29.02874        0.62030
H         -8.59402       30.35364        1.76990
H        -10.66307       31.80095        1.77523
H        -11.99339       31.45030        0.67244
H        -10.48847       32.13708        0.05258
H         -6.35817       25.75733       -3.26535
H         -8.17430       24.51572       -2.22912
H        -13.64351       25.80053       -0.53287
H        -15.63619       24.42852       -0.16214
H        -10.87697       20.52952        0.70048
H         -9.34641       21.03106       -0.05936
H        -11.82742       20.15586       -1.61623
H         -8.94702       20.64894       -2.49233
H        -10.33188       21.67113       -2.87256
H        -10.24195       20.03709       -3.52769
H        -10.89120       18.27232       -0.29308
H         -9.28735       18.59356       -0.95652
H        -10.58648       18.03982       -2.01406
H        -13.22648       20.90202        0.16049
H        -21.22206       22.75061        1.43566
H        -21.57190       21.01081        1.47068
H        -22.81394       21.32108       -0.73853
H        -24.04434       21.20805        1.42301
H        -24.82585       22.34309        0.32110
H        -23.82737       22.94465        1.64514
H        -21.65429       23.42638       -1.37460
H        -23.41422       23.59167       -1.44137
H        -22.51038       24.28270       -0.08992
H        -22.00615       19.34347       -0.06361
H        -14.97844       19.81058        0.66054
H        -17.42093       15.89416        0.77149
H        -15.72035       15.93209        1.27152
H        -15.88912       15.11687       -0.99146
H        -17.18490       17.77453       -1.76582
H        -18.02076       16.22058       -1.66423
H        -16.74883       16.46598       -2.86169
H        -14.77583       17.96011       -0.96937
H        -14.32466       16.69090       -2.10819
H        -13.92143       16.52366       -0.39666
H        -21.09401       14.77860       -0.04029
H        -22.33068       11.11162       -0.62185
H        -21.33333       12.34021        0.19654
H        -20.95656       13.45001       -2.03366
H        -20.18321       10.49815       -1.90997
H        -19.31294       11.81887       -1.12594
H        -19.38144       11.72943       -2.88611
H        -22.98612       12.66898       -3.20069
H        -22.41972       11.00157       -3.11714
H        -21.54880       12.18531       -4.09880
H        -23.84666       18.03503        0.37338
H        -25.74191       16.52778        0.03349
H        -26.26611       11.33894       -2.47422
H        -28.09275        9.92755       -3.26750
H        -29.79845       15.21968        1.25155
H        -30.71827       13.71891        0.97731
H        -31.24067       14.50758       -1.34887
H        -32.00385       16.47010        0.86382
H        -32.82307       14.94458        0.52113
H        -32.86722       16.25450       -0.65909
H        -29.29305       15.97799       -1.71378
H        -29.84752       17.06681       -0.44340
H        -30.78519       16.89049       -1.93105
H        -30.92533       12.12436       -0.92479
H        -34.10066        9.24881       -0.48292
H        -35.36654        8.19021        0.16702
H        -36.32796       10.28134       -0.58470
H        -34.65985       10.87530       -2.34375
H        -36.31749       11.00106       -2.93561
H        -35.32615        9.61917       -3.39475
H        -37.04976        7.97728       -2.45608
H        -38.08112        9.36811       -2.11309
H        -37.68719        8.22189       -0.82874
H        -35.72705        5.61562       -2.95613
H        -29.94733        9.38225       -4.51546
H        -31.51850        9.54551       -6.53394
H        -32.51062        8.39220       -7.45977
H        -30.40541        7.44757       -8.44452
H        -31.72973        9.14561       -9.68528
H        -30.83388       10.44327       -8.89171
H        -30.00771        9.35436      -10.00723
H        -29.06239        9.85317       -7.12813
H        -28.28922        8.70866       -8.22750
H        -28.85841        8.15935       -6.64947
H        -35.36961        4.18311       -7.38615
H        -36.18554        1.72447      -10.20770
H        -35.50505        3.13786       -9.36622
H        -38.40180        2.81738      -10.27719
H        -36.93890        5.28554       -9.22273
H        -38.15342        4.35966       -8.33469
H        -38.60702        5.23980       -9.79169
H        -36.13102        4.44414      -11.51503
H        -37.80992        4.45862      -12.05670
H        -36.85275        2.98498      -12.20003
H        -36.42588        3.41450       -3.31283
H        -37.73781        1.46583       -3.97709
H        -37.86810       -1.75601       -8.94931
H        -38.31405       -4.09722       -9.45026
H        -39.65715       -2.03742       -2.80492
H        -39.98632       -3.60629       -3.57703
H        -41.75780       -1.12660       -3.76671
H        -42.34340       -4.02479       -4.53366
H        -42.03016       -2.71366       -5.67730
H        -43.47024       -2.67680       -4.66169
H        -42.07539       -3.61044       -2.01564
H        -43.26196       -2.31422       -2.16946
H        -41.68670       -1.98347       -1.44976
H        -39.99924       -4.68662       -5.55856
H        -38.47962      -10.65608      -12.12981
H        -38.05811       -9.13287      -12.92699
H        -40.92590       -9.91473      -12.22904
H        -39.82764       -7.72274      -14.04491
H        -40.43224       -7.46826      -12.40781
H        -41.52851       -8.02527      -13.67571
H        -39.99853      -11.46867      -13.93426
H        -39.45897      -10.09720      -14.90307
H        -41.18307      -10.38289      -14.65887
H        -39.79577      -11.85768      -11.22207
H        -40.61310       -6.64842       -6.26119
H        -41.65350       -7.93692       -5.14758
H        -42.81320       -9.23802       -4.83882
H        -42.87326       -7.48757       -7.33992
H        -44.96190       -9.38612       -6.17808
H        -43.89255       -9.77348       -7.52583
H        -45.08795       -8.48460       -7.69215
H        -44.53825       -7.28428       -4.78688
H        -44.81613       -6.35923       -6.26390
H        -43.33912       -6.11108       -5.33822
H        -41.93065      -14.49763       -8.05436
H        -43.74183      -17.76439       -7.16384
H        -43.07147      -16.12331       -6.99634
H        -41.47763      -18.72743       -6.93594
H        -40.60079      -15.87857       -6.25748
H        -40.13086      -16.77453       -7.70584
H        -39.60513      -17.32651       -6.11789
H        -42.31841      -16.89396       -4.64132
H        -41.27180      -18.30579       -4.48974
H        -42.95819      -18.50872       -4.96275
H        -40.86290      -13.56945      -12.09235
H        -41.37512      -15.83872      -12.79929
H        -44.44329      -20.25805      -10.46590
H        -45.51644      -22.25911      -11.38667
H        -40.86893      -18.85902      -15.62938
H        -42.12765      -20.02860      -16.10123
H        -40.78356      -21.85376      -15.02246
H        -39.25563      -20.20914      -17.09423
H        -40.53843      -21.36735      -17.45312
H        -39.01385      -21.92473      -16.76353
H        -39.56925      -20.50763      -13.34858
H        -38.71136      -19.64908      -14.62586
H        -38.42428      -21.37436      -14.37051
H        -43.24223      -21.92260      -14.99085
H        -44.91301      -23.10561      -13.61165
