238
d5a11.out	Energy:   -9842.0489036
C          1.33477       11.10760       15.89022
S          0.07415       10.21776       15.10192
C          0.12531       11.31690       13.75225
C         -0.68742       11.21902       12.62766
O         -1.56208       10.18324       12.65667
C         -2.16305        9.67216       11.48494
C         -2.61035        8.23552       11.77523
C         -3.66374        8.22450       12.87867
C         -3.14201        7.59079       10.49877
C         -0.51451       12.20434       11.63773
C         -1.19424       12.38739       10.40537
C          1.77230       12.16991       15.18354
C          1.09176       12.32088       13.94036
C          1.28787       13.29326       12.94824
O          2.29538       14.20376       13.12855
C          1.93588       15.57702       13.12307
C          3.21775       16.40930       13.15951
C          2.88417       17.88706       12.97965
C          3.97201       16.17052       14.46420
C          0.48367       13.20989       11.82233
S          0.56562       14.29871       10.45238
C         -0.73775       13.44326        9.66763
C         -1.18327       13.88638        8.40273
C         -0.66456       14.96686        7.69276
N          0.32951       15.75961        8.12795
C          0.70749       16.72966        7.33789
C          1.80865       17.61157        7.82253
C          0.09002       16.93693        6.05902
C          0.53834       18.04599        5.16553
N         -0.87996       16.17633        5.62009
C         -1.28821       15.17256        6.42339
C         -2.29944       14.24438        6.16331
S         -2.45301       13.13790        7.49329
C         -3.10744       14.14132        5.00693
S         -4.32772       12.89151        4.85607
C         -4.75669       13.48155        3.27467
C         -5.78273       12.93321        2.52080
O         -6.40318       11.85829        3.06793
C         -7.76804       11.60012        2.79696
C         -8.40571       10.99233        4.05409
C         -7.70807        9.68525        4.41921
C         -8.33801       11.98348        5.21299
C         -6.02959       13.51837        1.26435
C         -6.94267       13.16067        0.24554
C         -3.04448       14.94788        3.90004
C         -3.95835       14.58455        2.88355
C         -4.19136       15.15939        1.61816
O         -3.53882       16.24016        1.11074
C         -2.11985       16.26740        1.14162
C         -1.53480       16.15211       -0.27561
C         -1.82998       14.77836       -0.87196
C         -2.08415       17.25860       -1.17059
C         -5.21700       14.61452        0.86518
S         -5.62676       15.18411       -0.73077
C         -6.85114       13.93918       -0.87851
C         -7.60869       13.77506       -2.06182
C         -8.65173       12.87037       -2.28376
N         -9.16687       12.01395       -1.37946
C        -10.14519       11.23961       -1.77365
C        -10.71510       10.29787       -0.76432
C        -10.65391       11.28709       -3.11124
C        -11.76794       10.39373       -3.54688
N        -10.16939       12.11173       -4.00373
C         -9.16623       12.92202       -3.61843
C         -8.51671       13.86712       -4.41940
S         -7.29514       14.68410       -3.50225
C         -8.73618       14.12849       -5.79062
S         -7.79050       15.33401       -6.64155
C         -8.58303       14.95401       -8.16302
C         -8.34623       15.48206       -9.41925
O         -7.47625       16.45371       -9.78563
C         -6.67343       17.09679       -8.81644
C         -5.82857       18.15332       -9.53225
C         -5.09584       19.01123       -8.50600
C         -4.84630       17.48464      -10.48969
C         -9.09774       14.93321      -10.48328
C         -8.95244       15.29715      -11.83842
C         -9.61977       13.49734       -6.62352
C         -9.55232       13.93490       -7.96267
C        -10.32682       13.40901       -9.02199
O        -11.25656       12.50132       -8.62779
C        -11.81058       11.55139       -9.51257
C        -10.98433       10.25826       -9.59613
C        -11.74004        9.24329      -10.44928
C         -9.59495       10.50844      -10.17473
C        -10.07259       13.91983      -10.28586
S        -10.78776       13.46581      -11.82731
C         -9.76544       14.59614      -12.68537
C         -9.84546       14.62994      -14.09189
C        -10.63595       13.79001      -14.87391
N        -11.47821       12.85487      -14.40035
C        -12.13007       12.14314      -15.28349
C        -13.06426       11.10356      -14.76083
C        -11.95908       12.34738      -16.69516
C        -12.71279       11.52777      -17.68818
N        -11.14338       13.25198      -17.17049
C        -10.46352       13.99114      -16.27540
C         -9.54317       14.99230      -16.57656
S         -8.90688       15.67813      -15.10947
C         -9.13460       15.39530      -17.86694
S         -9.75100       14.55650      -19.26970
C         -8.78269       15.57601      -20.30300
C         -8.76413       15.40365      -21.68055
O         -9.51321       14.35299      -22.11355
C         -9.95368       14.24984      -23.45085
C        -10.88476       15.39725      -23.86473
C        -11.13074       15.36136      -25.36969
C        -12.19266       15.30447      -23.08276
C         -7.95007       16.28560      -22.41717
C         -7.69473       16.40500      -23.80614
C         -8.25545       16.39654      -18.18667
C         -8.03262       16.53859      -19.57737
C         -7.23521       17.43645      -20.31389
O         -6.40019       18.41731      -19.86752
C         -6.63136       19.09873      -18.65271
C         -8.00934       19.76785      -18.57895
C         -8.21292       20.38433      -17.19855
C         -8.13610       20.82041      -19.67722
C         -7.23964       17.27895      -21.69115
S         -6.30443       18.32167      -22.72680
C         -6.85103       17.43107      -24.13165
C         -6.43588       17.77209      -25.44583
C         -6.74584       17.11740      -26.63820
N         -7.50224       16.00800      -26.77750
C         -7.65702       15.53805      -27.98755
C         -8.47718       14.29896      -28.14052
C         -7.06834       16.17525      -29.13415
C         -7.27788       15.62406      -30.50595
N         -6.33578       17.24817      -29.03028
C         -6.14577       17.74585      -27.78552
C         -5.39990       18.85213      -27.45415
S         -5.41803       19.13300      -25.76885
H          1.67249       10.77242       16.85144
H         -1.44555        9.67773       10.65573
H         -3.03851       10.27801       11.21383
H         -1.73321        7.68091       12.12365
H         -4.55957        8.74926       12.55274
H         -3.27474        8.71568       13.76621
H         -3.93453        7.20320       13.13435
H         -2.37752        7.56995        9.72534
H         -3.99817        8.14587       10.12088
H         -3.45647        6.56980       10.69854
H         -2.00905       11.78652       10.04828
H          2.54873       12.83929       15.50543
H          1.31449       15.79459       14.00489
H          1.35969       15.82720       12.22499
H          3.84435       16.07597       12.32639
H          2.24296       18.23181       13.78829
H          2.36828       18.05433       12.03699
H          3.79427       18.48166       12.98605
H          4.18337       15.11112       14.57842
H          3.37658       16.50230       15.31264
H          4.91239       16.71652       14.46644
H          2.13292       17.26499        8.79975
H          1.46621       18.64266        7.89905
H          2.65065       17.58623        7.13249
H          1.59015       17.92673        4.90951
H          0.41991       19.00710        5.66359
H         -0.05503       18.03780        4.25560
H         -7.84868       10.88955        1.96313
H         -8.28617       12.52726        2.52846
H         -9.45583       10.78842        3.81487
H         -7.78839        8.96658        3.60665
H         -8.15565        9.25207        5.31023
H         -6.65578        9.87504        4.61218
H         -8.85636       12.90664        4.96162
H         -7.30029       12.21648        5.43902
H         -8.79941       11.55949        6.10125
H         -7.64108       12.34746        0.28260
H         -2.36986       15.78284        3.86424
H         -1.72657       15.45634        1.75997
H         -1.82818       17.22766        1.58266
H         -0.44928       16.27035       -0.17608
H         -2.90035       14.65273       -1.01270
H         -1.46786       13.98633       -0.21879
H         -1.34549       14.67523       -1.83984
H         -3.16688       17.18101       -1.22659
H         -1.82720       18.23712       -0.77159
H         -1.67495       17.17364       -2.17417
H        -10.20019       10.42946        0.18346
H        -10.59894        9.26735       -1.09704
H        -11.77798       10.48851       -0.62381
H        -12.65644       10.57027       -2.94233
H        -11.48517        9.34810       -3.43332
H        -11.99848       10.59310       -4.58950
H         -6.01698       16.37170       -8.31974
H         -7.30626       17.57493       -8.05839
H         -6.51092       18.78376      -10.11143
H         -4.43994       18.39362       -7.89646
H         -5.79988       19.51545       -7.84845
H         -4.49284       19.76367       -9.00771
H         -5.38019       16.84449      -11.18677
H         -4.13371       16.87683       -9.93593
H         -4.29664       18.23335      -11.05482
H         -8.25325       16.04170      -12.17273
H        -10.28625       12.72876       -6.28134
H        -11.96027       11.96350      -10.51314
H        -12.79230       11.32213       -9.08435
H        -10.87498        9.86694       -8.57868
H        -11.85107        9.61912      -11.46406
H        -12.72946        9.05124      -10.04068
H        -11.19557        8.30333      -10.48861
H         -9.67138       10.91919      -11.17902
H         -9.03832        9.57519      -10.22407
H         -9.03484       11.20458       -9.55461
H        -13.06078       11.13806      -13.67490
H        -12.75560       10.11296      -15.09227
H        -14.07513       11.28055      -15.12464
H        -13.78557       11.66756      -17.56228
H        -12.49273       10.46958      -17.55548
H        -12.42359       11.83493      -18.68913
H        -10.50399       13.30396      -23.46990
H         -9.10276       14.16030      -24.13437
H        -10.39467       16.34358      -23.61251
H        -11.53027       14.39393      -25.66790
H        -10.20753       15.54307      -25.91510
H        -11.84743       16.12960      -25.64927
H        -12.74599       14.41400      -23.37475
H        -12.81465       16.17599      -23.27252
H        -11.98847       15.24833      -22.01591
H         -8.08970       15.78228      -24.58383
H         -7.79601       16.98698      -17.41613
H         -5.84919       19.86380      -18.63465
H         -6.47127       18.43385      -17.79606
H         -8.77519       19.00108      -18.73942
H         -8.16954       19.62344      -16.42209
H         -9.18346       20.87110      -17.14538
H         -7.44396       21.12707      -16.99694
H         -7.43465       21.63393      -19.50409
H         -9.14337       21.22946      -19.69869
H         -7.91882       20.38274      -20.64881
H         -8.77097       13.93211      -27.16098
H         -7.90742       13.52724      -28.65542
H         -9.37196       14.50514      -28.72688
H         -6.87511       14.61461      -30.57630
H         -6.77272       16.26180      -31.22556
H         -8.33991       15.58154      -30.74250
H         -4.85165       19.49739      -28.10905
