150
d6a1.out	Energy:   -8592.2511624
C        -11.44819       10.23402      -11.87441
S        -10.06486        9.29020      -11.43337
C        -11.01700        7.86691      -11.50129
C        -10.86246        6.48279      -11.23525
S         -9.64280        5.38537      -10.74717
C        -12.57542        9.49533      -12.06854
C        -12.34131        8.12067      -11.87154
C        -13.08515        6.86207      -11.85287
C        -14.38103        6.60074      -12.11031
C        -15.37344        7.52110      -12.63926
C        -15.07074        8.39623      -13.68303
C        -16.03677        9.24558      -14.18816
C        -17.31756        9.23968      -13.65973
C        -17.63476        8.36147      -12.63571
C        -16.67657        7.49954      -12.13909
C        -12.10380        5.86451      -11.42363
C        -12.05828        4.49388      -11.18048
C        -10.79802        4.06647      -10.79928
C        -10.38056        2.74251      -10.45697
C        -11.21439        1.62978      -10.50830
C        -10.79844        0.34984      -10.15899
C         -9.05240        2.49010      -10.02706
N         -8.07325        3.38161       -9.90247
S         -6.74614        2.63758       -9.37699
N         -7.34944        1.14839       -9.28184
C         -8.62429        1.16978       -9.66023
C         -9.50935        0.06287       -9.72061
C         -9.07051       -1.24304       -9.34075
S         -7.44059       -1.47673       -8.74004
C         -7.75506       -3.14731       -8.52616
C         -7.10320       -4.28335       -8.00052
S         -5.59116       -4.70159       -7.31681
C         -9.79100       -2.42493       -9.37240
C         -9.05050       -3.51848       -8.92987
C         -9.23908       -4.94614       -8.67042
C        -10.29784       -5.75013       -8.88692
C        -11.51796       -5.41594       -9.60141
C        -11.48823       -4.67546      -10.78409
C        -12.65808       -4.38645      -11.46042
C        -13.87609       -4.82883      -10.96962
C        -13.91581       -5.58387       -9.80822
C        -12.74729       -5.88712       -9.13694
C         -7.98470       -5.37277       -8.05370
C         -7.42955       -6.54293       -7.54311
C         -6.13509       -6.36268       -7.09260
C         -5.26360       -7.32840       -6.50177
C         -3.97189       -7.01206       -6.09583
C         -3.10811       -7.93382       -5.52118
C         -5.66511       -8.67740       -6.29402
N         -6.83810       -9.22594       -6.60212
S         -6.82097      -10.78106       -6.18580
N         -5.32734      -10.83853       -5.59326
C         -4.76867       -9.63468       -5.69301
C         -3.45559       -9.26007       -5.29311
C         -2.55475      -10.20065       -4.70582
S         -0.89128       -9.75038       -4.34356
C         -0.57956      -11.32961       -3.75927
C          0.48495      -12.04349       -3.16844
S          2.12018      -11.79461       -2.72098
C         -2.81486      -11.51479       -4.37064
C         -1.70177      -12.17048       -3.85014
C         -1.35713      -13.48044       -3.29807
C         -2.12125      -14.57825       -3.14325
C         -3.48067      -14.75125       -3.63302
C         -3.83928      -14.37040       -4.92659
C         -5.13829      -14.52836       -5.37004
C         -6.09968      -15.07015       -4.53247
C         -5.74800      -15.48042       -3.25640
C         -4.44731      -15.33549       -2.81363
C          0.03376      -13.33998       -2.87141
C          1.02308      -14.12683       -2.29180
C          2.21985      -13.44550       -2.13611
C          3.44574      -13.93021       -1.58622
C          3.63312      -15.23472       -1.13757
C          4.83513      -15.69286       -0.61099
C          4.57374      -13.07734       -1.46957
N          4.64293      -11.79771       -1.82455
S          6.11816      -11.23964       -1.50264
N          6.74062      -12.59545       -0.89719
C          5.81388      -13.54912       -0.92159
C          5.96402      -14.88914       -0.48117
C          7.20783      -15.34545        0.05480
S          8.54366      -14.22563        0.23475
C          9.51332      -15.48123        0.88031
C         10.84458      -15.66785        1.31405
S         12.26951      -14.74628        1.52802
C          7.53268      -16.62120        0.48365
C          8.83549      -16.70971        0.96960
C          9.75686      -17.72551        1.48154
C          9.57633      -19.03886        1.71912
C          8.32317      -19.77285        1.66494
C          8.29302      -21.05839        1.12165
C          7.11139      -21.77186        1.06892
C          5.94531      -21.22708        1.58267
C          5.97043      -19.96611        2.15660
C          7.14722      -19.24273        2.19749
C         11.02052      -17.01370        1.66151
C         12.31283      -17.29166        2.10513
C         13.12595      -16.17665        2.09561
C         14.50413      -16.08217        2.48070
C         15.20216      -14.88695        2.43126
C         16.54643      -14.77097        2.80723
C         15.23127      -17.21664        2.93962
N         14.79991      -18.46873        3.07733
S         16.00669      -19.38006        3.63171
N         17.13673      -18.24391        3.72711
C         16.61467      -17.08423        3.32422
C         17.26926      -15.84519        3.25431
H        -11.33550       11.29638      -11.96279
H        -13.52429        9.92910      -12.32664
H        -14.74022        5.60077      -11.89698
H        -14.08126        8.37959      -14.11480
H        -15.79126        9.91378      -15.00092
H        -18.06899        9.90879      -14.05190
H        -18.63522        8.34532      -12.22857
H        -16.92527        6.81474      -11.34079
H        -12.90119        3.83270      -11.26629
H        -12.23506        1.75769      -10.83346
H        -11.51668       -0.45246      -10.22802
H        -10.81518       -2.47523       -9.69254
H        -10.24897       -6.75617       -8.48749
H        -10.53682       -4.35816      -11.18386
H        -12.62006       -3.81688      -12.37789
H        -14.78961       -4.59689      -11.49683
H        -14.86190       -5.94244       -9.42968
H        -12.77968       -6.47646       -8.23171
H         -7.91909       -7.49681       -7.48251
H         -3.62511       -5.99844       -6.23578
H         -2.11887       -7.60695       -5.23498
H         -3.78931      -11.94357       -4.50544
H         -1.70777      -15.41004       -2.58540
H         -3.08446      -13.97289       -5.58807
H         -5.40221      -14.22471       -6.37230
H         -7.11724      -15.18308       -4.87617
H         -6.49130      -15.91713       -2.60525
H         -4.17645      -15.65008       -1.81570
H          0.88692      -15.14930       -1.99012
H          2.81138      -15.93082       -1.20068
H          4.88790      -16.72142       -0.28915
H          6.84968      -17.44815        0.42390
H         10.45196      -19.62466        1.97253
H          9.20173      -21.48459        0.72123
H          7.09884      -22.75971        0.63203
H          5.02336      -21.78830        1.54690
H          5.06842      -19.54663        2.57860
H          7.17356      -18.27348        2.67261
H         12.67526      -18.25110        2.42433
H         14.68455      -14.00305        2.08748
H         17.01691      -13.80138        2.73929
H         18.30316      -15.76801        3.54716
