146
d6a3.out	Energy:  -16673.5679222
C         28.34238       -4.18739        2.45565
S         26.68949       -4.11474        2.96522
C         26.56923       -2.52375        2.33929
C         25.57196       -1.53168        2.17115
S         23.92092       -1.28144        2.54339
C         28.77760       -3.05143        1.84325
C         27.76902       -2.07092        1.78062
C         27.55691       -0.73339        1.22924
C         28.40114        0.09219        0.58144
C         29.83173       -0.09013        0.40187
C         30.42754        0.23286       -0.81840
C         31.78672        0.06878       -1.00197
C         32.57921       -0.39227        0.03715
C         32.00429       -0.68142        1.26419
C         30.64252       -0.53444        1.44704
C         26.14316       -0.45270        1.48406
C         25.23478        0.57913        1.26458
C         23.97753        0.29318        1.77153
C         22.80221        1.10225        1.71963
C         22.75014        2.35887        1.11513
N         21.68593        3.13950        1.02842
C         20.51978        2.76652        1.53983
C         20.41229        1.50688        2.20440
C         21.57554        0.66469        2.29166
N         21.37175       -0.48158        2.92423
Se        19.69923       -0.56679        3.44613
N         19.32498        1.00838        2.76711
C         19.40135        3.63523        1.40262
S         17.83813        3.19851        2.05095
C         17.18764        4.66509        1.45394
C         15.92829        5.28798        1.37308
S         14.31416        4.99361        1.86281
C         19.39317        4.86834        0.76515
C         18.14320        5.47388        0.80096
C         17.47276        6.67045        0.28794
C         17.95638        7.71572       -0.41148
C         19.34892        8.00035       -0.70991
C         19.69865        8.52330       -1.95644
C         21.01732        8.80484       -2.25555
C         22.00611        8.59683       -1.30710
C         21.66631        8.11307       -0.05397
C         20.35049        7.81588        0.24436
C         16.06932        6.48934        0.65622
C         14.86352        7.16612        0.51493
C         13.80451        6.49137        1.10676
C         12.42888        6.86718        1.13945
C         11.92797        8.04379        0.57816
N         10.66140        8.42080        0.56058
C          9.71467        7.66830        1.10909
C         10.06933        6.43712        1.73912
C         11.45053        6.03570        1.75298
N         11.67541        4.87999        2.36000
Se        10.15690        4.22852        2.94953
N          9.24147        5.59356        2.33149
C          8.36540        8.11258        1.04485
S          7.06492        7.15013        1.70616
C          5.93891        8.34007        1.20636
C          4.55634        8.57931        1.31035
S          3.15994        7.81028        1.93518
C          7.92035        9.29509        0.46963
C          6.54001        9.43094        0.53941
C          5.50111       10.40408        0.19837
C          5.57961       11.60057       -0.41731
C          6.74524       12.18315       -1.05673
C          7.61306       11.41384       -1.83333
C          8.70674       11.99458       -2.44592
C          8.95427       13.34943       -2.29438
C          8.08617       14.12804       -1.54543
C          6.98342       13.55453       -0.94351
C          4.26869        9.82538        0.72801
C          2.91653       10.14804        0.78912
C          2.16624        9.16814        1.41523
C          0.76231        9.16124        1.66822
C          0.13177        8.09788        2.31518
N         -1.15214        8.00685        2.60880
C         -1.99177        8.98248        2.28622
C         -1.50243       10.13876        1.60604
C         -0.09826       10.23249        1.28952
N          0.23753       11.34993        0.65879
Se        -1.19214       12.34308        0.43047
N         -2.23004       11.17259        1.22131
C         -3.36078        8.83444        2.64402
S         -4.54145       10.07922        2.31373
C         -5.75573        9.11452        3.04274
C         -7.14743        9.16904        3.25935
S         -8.45692       10.24144        2.99410
C         -3.90689        7.73339        3.28867
C         -5.26452        7.88596        3.53663
C         -6.37957        7.12139        4.09557
C         -6.41410        5.89739        4.65900
C         -5.28163        5.05679        5.00268
C         -4.12329        5.58908        5.57104
C         -3.06526        4.76621        5.90596
C         -3.14343        3.40144        5.67975
C         -4.29792        2.85842        5.13839
C         -5.36369        3.67532        4.81572
C         -7.54757        7.96994        3.87509
C         -8.91344        7.93276        4.12982
C         -9.56130        9.08487        3.71246
C        -10.95631        9.38468        3.81260
C        -11.89158        8.51563        4.36425
N        -13.19919        8.75368        4.47733
C        -13.70995        9.87738        4.05516
C        -12.90053       10.87352        3.46863
C        -11.48689       10.62087        3.34384
N        -10.80146       11.60648        2.78412
Se       -11.90190       12.90880        2.37757
N        -13.29315       12.05424        3.00277
H         28.89727       -5.08483        2.64515
H         29.77202       -2.94016        1.45115
H         27.98308        0.98678        0.13526
H         29.81061        0.59268       -1.62947
H         32.23278        0.30671       -1.95657
H         33.64250       -0.51508       -0.10562
H         32.62168       -1.02059        2.08338
H         30.19853       -0.73162        2.41131
H         25.46513        1.49835        0.75789
H         23.63716        2.77501        0.65823
H         20.28052        5.25424        0.29949
H         17.23929        8.42603       -0.80606
H         18.92893        8.68512       -2.69764
H         21.27638        9.19381       -3.22949
H         23.03612        8.82211       -1.54038
H         22.43073        7.96836        0.69520
H         20.08236        7.46969        1.23077
H         14.74378        8.10243        0.00134
H         12.60048        8.74161        0.09905
H          8.61420        9.99575        0.04465
H          4.68211       12.20764       -0.43581
H          7.40199       10.36567       -1.97989
H          9.36871       11.38783       -3.04604
H          9.81374       13.79985       -2.76813
H          8.26795       15.18723       -1.43648
H          6.30793       14.16242       -0.35872
H          2.46565       11.04586        0.40968
H          0.72306        7.24549        2.62636
H         -3.30049        6.88155        3.53249
H         -7.38953        5.47837        4.87688
H         -4.07536        6.64695        5.77920
H         -2.17563        5.19099        6.34685
H         -2.31239        2.76129        5.93540
H         -4.36814        1.79326        4.97347
H         -6.26278        3.25088        4.39215
H         -9.42462        7.11018        4.59493
H        -11.58481        7.55374        4.74829
H        -14.77416       10.02019        4.17003
