314
d8a10.out	Energy:  -12977.6192527
C        -27.24481       22.50408      -16.23569
S        -27.60052       22.42091      -14.54787
C        -26.22345       21.38323      -14.28335
C        -25.83864       20.85204      -13.05485
C        -26.57363       21.08293      -11.83341
C        -26.80357       20.20661      -10.80850
C        -27.53578       20.75605       -9.73509
C        -27.87555       19.97383       -8.50926
C        -27.87734       22.06238       -9.94852
C        -28.64190       22.96686       -9.04744
S        -27.30163       22.62889      -11.48121
C        -24.68221       20.04112      -13.06472
C        -24.04574       19.41894      -11.96738
C        -26.16030       21.78790      -16.59569
C        -25.55154       21.11212      -15.49869
C        -24.42199       20.27255      -15.51445
C        -23.71042       19.92801      -16.72963
C        -22.35989       19.81869      -16.90685
C        -21.97974       19.41216      -18.20510
C        -20.56264       19.23271      -18.64274
C        -23.05539       19.19793      -19.01986
C        -23.04404       18.76215      -20.44206
S        -24.54732       19.50689      -18.19754
C        -24.01565       19.76937      -14.28366
S        -22.66076       18.70462      -14.03469
C        -22.95385       18.66319      -12.30263
C        -22.21469       17.88308      -11.36586
C        -22.67914       17.50108      -10.10908
C        -23.79863       17.57486       -9.20998
O        -24.88178       18.12888       -9.28524
N        -23.41995       16.79693       -8.09663
C        -24.31290       16.71516       -6.96994
C        -23.93019       17.66185       -5.82001
C        -23.91329       19.10987       -6.30140
C        -24.92590       17.48674       -4.67727
C        -22.17622       16.22756       -8.27193
C        -21.70795       16.65208       -9.50943
C        -20.61433       16.51082      -10.43146
O        -19.58870       15.85885      -10.39015
N        -20.97523       17.31533      -11.53597
C        -20.02591       17.51041      -12.60182
C        -19.11159       18.73662      -12.40474
C        -19.87233       20.05501      -12.51208
C        -18.36890       18.66361      -11.07285
C        -21.49534       15.33909       -7.39170
S        -20.01241       14.60880       -7.98619
C        -19.84270       13.69304       -6.51838
C        -18.82434       12.78489       -6.25430
C        -17.75290       12.51703       -7.18838
C        -16.42513       12.32038       -6.91568
C        -15.64095       12.04872       -8.05658
C        -14.16725       11.80077       -8.02210
C        -16.38498       12.03565       -9.20520
C        -15.90411       11.77924      -10.58901
S        -18.05208       12.37370       -8.89565
C        -18.89001       12.11859       -5.01169
C        -18.04633       11.08528       -4.55473
C        -21.79668       14.91363       -6.12232
C        -20.86665       13.99954       -5.58478
C        -20.88485       13.39409       -4.30689
C        -21.83781       13.74582       -3.27863
C        -22.34276       12.95518       -2.28229
C        -23.18826       13.63049       -1.37575
C        -23.84559       12.95248       -0.21896
C        -23.32944       14.95590       -1.67751
C        -24.14246       15.97914       -0.96639
S        -22.41874       15.38131       -3.08697
C        -19.89934       12.43714       -4.06945
S        -19.73136       11.48300       -2.62609
C        -18.34951       10.63008       -3.29757
C        -17.78982        9.59323       -2.49699
C        -18.32157        9.14237       -1.29283
C        -19.39799        9.33628       -0.35938
O        -20.36896       10.07198       -0.36156
N        -19.13951        8.41702        0.67929
C        -20.10182        8.27658        1.74547
C        -20.11841        9.49081        2.68997
C        -21.28952        9.36137        3.65943
C        -18.80763        9.65182        3.45445
C        -18.01772        7.66074        0.41725
C        -17.50530        8.08878       -0.79669
C        -16.41934        7.89889       -1.72278
O        -15.46869        7.14441       -1.73485
N        -16.65263        8.85470       -2.73967
C        -15.70049        8.94435       -3.81811
C        -15.89132        7.84649       -4.88017
C        -17.28768        7.85057       -5.49663
C        -14.82950        8.01149       -5.96380
C        -17.49157        6.60559        1.22273
S        -16.56755        5.35384        0.41763
C        -16.31203        4.52172        1.92561
C        -15.56367        3.35769        2.09649
C        -14.91189        2.70581        0.98603
C        -15.33877        2.61454       -0.31323
C        -14.43665        1.94937       -1.16671
C        -14.68000        1.71201       -2.62126
C        -13.30275        1.54428       -0.51391
C        -12.13940        0.81591       -1.08632
S        -13.34309        1.96952        1.15637
C        -15.44929        2.88178        3.42206
C        -14.84479        1.68685        3.86152
C        -17.56978        6.39336        2.57207
C        -16.91571        5.21813        3.00195
C        -16.77255        4.75966        4.32975
C        -17.39716        5.45379        5.43681
C        -18.65715        5.98037        5.50149
C        -18.95884        6.60009        6.73498
C        -20.26903        7.24927        7.04369
C        -17.91197        6.54832        7.61212
C        -17.85459        7.10004        8.99242
S        -16.55101        5.71930        6.93425
C        -16.01743        3.60902        4.49822
S        -15.69857        2.83128        6.02033
C        -14.87241        1.50226        5.22103
C        -14.30104        0.36828        5.86257
C        -13.81934       -0.76343        5.20366
C        -13.69473       -1.38724        3.91231
O        -14.01535       -1.03717        2.79019
N        -13.08375       -2.62835        4.17316
C        -12.76436       -3.51070        3.08126
C        -11.28234       -3.45118        2.67619
C        -10.95878       -4.62811        1.76099
C        -10.96962       -2.12343        1.99285
C        -12.84174       -2.80899        5.51557
C        -13.28963       -1.66311        6.17039
C        -13.43706       -1.04824        7.46294
O        -13.11494       -1.39488        8.58547
N        -14.07368        0.18049        7.20501
C        -14.38555        1.03950        8.31954
C        -15.58536        0.52448        9.13123
C        -15.79807        1.43220       10.33831
C        -16.84998        0.45445        8.28187
C        -12.28301       -3.95732        6.13881
S        -11.77029       -5.40599        5.28869
C        -11.27842       -6.16082        6.77504
C        -10.65515       -7.39781        6.86554
C        -10.35754       -8.16964        5.67820
C        -11.11027       -8.29895        4.54401
C        -10.49361       -9.05656        3.52411
C        -11.12069       -9.33476        2.19713
C         -9.25127       -9.50001        3.88157
C         -8.31201      -10.32277        3.07367
S         -8.83413       -8.99422        5.48330
C        -10.30102       -7.81576        8.16793
C         -9.72655       -9.04783        8.54453
C        -12.09502       -4.08605        7.49259
C        -11.54536       -5.32353        7.88938
C        -11.20016       -5.74725        9.19323
C        -11.50561       -4.97438       10.37262
C        -10.80986       -4.92381       11.55422
C        -11.41479       -4.12213       12.54102
C        -10.83358       -3.91210       13.90104
C        -12.58869       -3.56134       12.11158
C        -13.49694       -2.65846       12.86835
S        -12.95538       -4.01486       10.48892
C        -10.56499       -6.98736        9.28682
S        -10.03805       -7.73908       10.76186
C         -9.51405       -9.17101        9.89363
C         -8.95313      -10.22285       10.67700
C         -8.68860      -10.14916       12.03647
C         -8.70709       -9.26676       13.17281
O         -9.02876       -8.10088       13.31264
N         -8.20218      -10.06065       14.22992
C         -8.09349       -9.56448       15.57530
C         -9.29263       -9.93983       16.46668
C        -10.60104       -9.45386       15.84924
C         -9.34997      -11.44162       16.73376
C         -7.88228      -11.31093       13.80239
C         -8.16291      -11.40980       12.46911
C         -8.12810      -12.28678       11.32358
O         -7.80638      -13.44727       11.19241
N         -8.60889      -11.48961       10.25631
C         -8.66731      -12.05424        8.93292
C         -7.48144      -11.64649        8.04197
C         -6.16352      -12.09412        8.66712
C         -7.66139      -12.26734        6.65959
H        -27.87717       23.10021      -16.86428
H        -26.48635       19.18061      -10.81736
H        -27.19010       19.13504       -8.42213
H        -28.89384       19.58841       -8.56901
H        -27.80097       20.59574       -7.61916
H        -28.12265       23.08754       -8.09573
H        -29.62885       22.55230       -8.83998
H        -28.76284       23.94541       -9.50432
H        -24.36605       19.53664      -10.95019
H        -25.79150       21.74036      -17.60346
H        -21.64622       20.05927      -16.13908
H        -19.88323       19.46598      -17.82773
H        -20.33627       19.88439      -19.48629
H        -20.38833       18.20493      -18.96009
H        -22.54657       17.79661      -20.54058
H        -22.50034       19.48085      -21.05666
H        -24.05786       18.67330      -20.82324
H        -24.37966       15.68122       -6.62366
H        -25.29388       17.01472       -7.35426
H        -22.92815       17.40632       -5.45949
H        -24.87835       19.38471       -6.72088
H        -23.15675       19.25398       -7.06965
H        -23.68848       19.77922       -5.47429
H        -25.92997       17.74456       -5.00701
H        -24.65966       18.13478       -3.84632
H        -24.93139       16.45952       -4.32023
H        -20.54601       17.58039      -13.55829
H        -19.40008       16.61197      -12.60385
H        -18.37655       18.69454      -13.21652
H        -20.63680       20.12561      -11.74083
H        -20.34969       20.15100      -13.48399
H        -19.18665       20.88973      -12.38433
H        -19.05814       18.80205      -10.24192
H        -17.61382       19.44482      -11.02052
H        -17.88347       17.69886      -10.95198
H        -16.00829       12.42360       -5.92869
H        -13.79893       11.83393       -7.00009
H        -13.63983       12.55407       -8.60649
H        -13.93160       10.82581       -8.44869
H        -15.47163       10.78077      -10.66632
H        -15.13195       12.49912      -10.86219
H        -16.72430       11.86200      -11.29663
H        -17.28364       10.67356       -5.18351
H        -22.66183       15.22915       -5.57624
H        -22.14556       11.90241       -2.19907
H        -23.31729       12.03185        0.01406
H        -24.88207       12.70967       -0.45592
H        -23.84347       13.59610        0.65872
H        -23.88285       16.00368        0.09220
H        -25.20534       15.74603       -1.04427
H        -23.97146       16.96457       -1.39146
H        -19.90671        7.35192        2.28814
H        -21.09052        8.20665        1.27634
H        -20.27253       10.37625        2.06630
H        -21.18724        8.46045        4.26116
H        -22.23290        9.31270        3.12113
H        -21.32075       10.21803        4.32803
H        -18.70145        8.87511        4.21058
H        -18.78965       10.61319        3.96292
H        -17.95481        9.61041        2.78003
H        -14.71268        8.79686       -3.36650
H        -15.73189        9.93913       -4.25867
H        -15.73888        6.88798       -4.37371
H        -17.43079        8.71505       -6.14119
H        -18.05663        7.85871       -4.72733
H        -17.42498        6.95734       -6.10189
H        -14.94585        8.97038       -6.46657
H        -14.92379        7.22295       -6.70624
H        -13.83094        7.96294       -5.53606
H        -16.29462        2.97752       -0.64556
H        -15.62321        2.15821       -2.92309
H        -14.71116        0.64377       -2.83564
H        -13.87989        2.14948       -3.21741
H        -11.65902        1.41173       -1.86359
H        -12.46552       -0.12137       -1.53851
H        -11.40999        0.59534       -0.31147
H        -14.42506        0.95348        3.19889
H        -18.00821        7.08912        3.25881
H        -19.37301        5.88173        4.70388
H        -21.01886        6.95684        6.31295
H        -20.17159        8.33533        7.02582
H        -20.61594        6.96171        8.03449
H        -18.03238        8.17576        8.98164
H        -16.88154        6.91084        9.43751
H        -18.62027        6.64128        9.61945
H        -13.37912       -3.17608        2.23958
H        -13.04876       -4.53360        3.33928
H        -10.66938       -3.53329        3.58011
H        -11.59164       -4.60529        0.87653
H        -11.11759       -5.57047        2.28070
H         -9.92030       -4.58363        1.44240
H        -11.56551       -2.01446        1.08944
H         -9.91655       -2.07243        1.72492
H        -11.19739       -1.28693        2.64931
H        -14.56908        2.05456        7.96969
H        -13.50566        1.04285        8.97224
H        -15.33566       -0.48255        9.48032
H        -16.02388        2.44560       10.01214
H        -14.90742        1.45877       10.96153
H        -16.62809        1.07153       10.94077
H        -17.14815        1.45051        7.96227
H        -17.66395        0.01947        8.85724
H        -16.69340       -0.16158        7.39885
H        -12.10301       -7.89621        4.45076
H        -12.12677       -8.92631        2.16189
H        -11.16934      -10.40720        2.01192
H        -10.53375       -8.88443        1.39667
H         -8.11353       -9.84176        2.11565
H         -8.74114      -11.30512        2.87069
H         -7.37120      -10.45742        3.60048
H         -9.48881       -9.80445        7.82499
H        -12.33109       -3.28679        8.17072
H         -9.86793       -5.41606       11.71411
H        -10.07079       -4.66097       14.09553
H        -11.60577       -3.98595       14.66471
H        -10.37974       -2.92330       13.97557
H        -12.93719       -1.82046       13.28344
H        -13.96781       -3.19080       13.69648
H        -14.27429       -2.27135       12.21513
H         -8.03848       -8.47464       15.49581
H         -7.16759       -9.93930       16.02170
H         -9.13855       -9.42236       17.42017
H        -10.82715      -10.01263       14.94325
H        -10.53646       -8.40074       15.58806
H        -11.42277       -9.59147       16.54802
H         -9.54161      -11.98946       15.81346
H        -10.15382      -11.66529       17.43112
H         -8.41631      -11.79629       17.16612
H         -7.45896      -12.03638       14.47165
H         -9.61941      -11.79527        8.46272
H         -8.63472      -13.13951        9.07743
H         -7.46025      -10.55613        7.94112
H         -6.17101      -13.16657        8.84653
H         -5.99644      -11.59296        9.61805
H         -5.33306      -11.85540        8.00671
H         -7.67412      -13.35250        6.73177
H         -6.84220      -11.97537        6.00760
H         -8.59331      -11.94021        6.20348
